 running on  512 total cores
 distrk:  each k-point on  512 cores,    1 groups
 distr:  one band on   16 cores,   32 groups
 using from now: INCAR     
 vasp.5.4.4.18Apr17-6-g9f103f2a35 (build Jun 14 2024 12:30:39) gamma-only        
 POSCAR found type information on POSCAR  Si C 
 POSCAR found :  2 types and     215 ions
 scaLAPACK will be used
 LDA part: xc-table for Pade appr. of Perdew

 ----------------------------------------------------------------------------- 
|                                                                             |
|           W    W    AA    RRRRR   N    N  II  N    N   GGGG   !!!           |
|           W    W   A  A   R    R  NN   N  II  NN   N  G    G  !!!           |
|           W    W  A    A  R    R  N N  N  II  N N  N  G       !!!           |
|           W WW W  AAAAAA  RRRRR   N  N N  II  N  N N  G  GGG   !            |
|           WW  WW  A    A  R   R   N   NN  II  N   NN  G    G                |
|           W    W  A    A  R    R  N    N  II  N    N   GGGG   !!!           |
|                                                                             |
|      The number of bands has been changed from the values supplied          |
|      in the INCAR file. This is a result of running the parallel version.   |
|      The orbitals not found in the WAVECAR file will be initialized with    |
|      random numbers, which is usually adequate. For correlated              |
|      calculations, however, you should redo the groundstate calculation.    |
|      I found NBANDS    =      450  now  NBANDS  =     480                   |
|                                                                             |
 ----------------------------------------------------------------------------- 

 POSCAR, INCAR and KPOINTS ok, starting setup
 FFT: planning ...
 WAVECAR not read
 WARNING: random wavefunctions but no delay for mixing, default for NELMDL
 entering main loop

 ----------------------------------------------------------------------------- 
|                                                                             |
|           W    W    AA    RRRRR   N    N  II  N    N   GGGG   !!!           |
|           W    W   A  A   R    R  NN   N  II  NN   N  G    G  !!!           |
|           W    W  A    A  R    R  N N  N  II  N N  N  G       !!!           |
|           W WW W  AAAAAA  RRRRR   N  N N  II  N  N N  G  GGG   !            |
|           WW  WW  A    A  R   R   N   NN  II  N   NN  G    G                |
|           W    W  A    A  R    R  N    N  II  N    N   GGGG   !!!           |
|                                                                             |
|      ALGO=A and IALGO=5X tend to fail with the tetrahedron method           |
|      (e.g. Bloechls method ISMEAR=-5 is not variational)                    |
|      please switch to IMSEAR=0-n, except for DOS calculations               |
|      For DOS calculations use IALGO=53 after preconverging with ISMEAR>=0   |
|          I HOPE YOU KNOW, WHAT YOU ARE  DOING                               |
|                                                                             |
 ----------------------------------------------------------------------------- 

       N       E                     dE             d eps       ncg     rms          ort
DAV:   1     0.778471847836E+04    0.77847E+04   -0.45019E+05   480   0.151E+03
DAV:   2     0.166922227238E+03   -0.76178E+04   -0.73759E+04   480   0.363E+02
DAV:   3    -0.465327459387E+03   -0.63225E+03   -0.62830E+03   480   0.103E+02
DAV:   4    -0.479324396300E+03   -0.13997E+02   -0.13967E+02   480   0.176E+01
DAV:   5    -0.479591060881E+03   -0.26666E+00   -0.26651E+00   480   0.229E+00
 gam= 0.000 g(H,U,f)=  0.218E+02 0.483E+01 0.000E+00 ort(H,U,f) = 0.000E+00 0.000E+00 0.000E+00
SDA:   6    -0.240041211479E+04   -0.19208E+04   -0.26651E+00   480   0.267E+02 0.000E+00
 gam= 0.000 trial= 0.400  step= 0.480 mean= 0.400
 gam= 0.283 g(H,U,f)=  0.589E+01 0.167E+01 0.000E+00 ort(H,U,f) = 0.315E+01-0.217E+01 0.000E+00
CGA:   7    -0.240685686692E+04   -0.64448E+01   -0.64044E+01   480   0.756E+01 0.974E+00
 gam= 0.283 trial= 0.404  step= 0.486 mean= 0.404
 gam= 0.141 g(H,U,f)=  0.749E+00 0.315E+00 0.000E+00 ort(H,U,f) = 0.154E+00-0.213E+00 0.000E+00
CGA:   8    -0.240876409633E+04   -0.19072E+01   -0.19028E+01   480   0.106E+01-0.599E-01
 gam= 0.141 trial= 0.408  step= 0.777 mean= 0.408
 gam= 0.291 g(H,U,f)=  0.221E+00 0.884E-01 0.000E+00 ort(H,U,f) =-0.682E-01 0.229E-01 0.000E+00
CGA:   9    -0.240916873471E+04   -0.40464E+00   -0.40971E+00   480   0.309E+00-0.452E-01
 gam= 0.291 trial= 0.427  step= 0.709 mean= 0.427
 gam= 0.393 g(H,U,f)=  0.842E-01 0.373E-01 0.000E+00 ort(H,U,f) =-0.259E-01 0.115E-01 0.000E+00
CGA:  10    -0.240927234586E+04   -0.10361E+00   -0.10492E+00   480   0.121E+00-0.144E-01
 gam= 0.393 trial= 0.441  step= 0.856 mean= 0.441
 gam= 0.414 g(H,U,f)=  0.441E-01 0.618E-02 0.000E+00 ort(H,U,f) =-0.858E-02 0.134E-02 0.000E+00
CGA:  11    -0.240932053620E+04   -0.48190E-01   -0.49546E-01   480   0.503E-01-0.724E-02
 gam= 0.414 trial= 0.461  step= 0.864 mean= 0.461
 gam= 0.500 g(H,U,f)=  0.191E-01 0.603E-02 0.000E+00 ort(H,U,f) =-0.146E-02 0.377E-03 0.000E+00
CGA:  12    -0.240934088924E+04   -0.20353E-01   -0.20428E-01   480   0.252E-01-0.108E-02
 gam= 0.500 trial= 0.482  step= 0.773 mean= 0.482
 gam= 0.478 g(H,U,f)=  0.897E-02 0.307E-02 0.000E+00 ort(H,U,f) =-0.228E-02 0.172E-02 0.000E+00
CGA:  13    -0.240935033838E+04   -0.94491E-02   -0.95206E-02   480   0.120E-01-0.562E-03
 gam= 0.478 trial= 0.496  step= 0.961 mean= 0.496
 gam= 0.672 g(H,U,f)=  0.535E-02 0.274E-02 0.000E+00 ort(H,U,f) =-0.265E-02 0.250E-02 0.000E+00
CGA:  14    -0.240935599218E+04   -0.56538E-02   -0.56601E-02   480   0.809E-02-0.145E-03
 gam= 0.672 trial= 0.519  step= 0.983 mean= 0.519
 gam= 0.981 g(H,U,f)=  0.597E-02 0.197E-02 0.000E+00 ort(H,U,f) =-0.317E-02 0.303E-02 0.000E+00
CGA:  15    -0.240935990661E+04   -0.39144E-02   -0.39303E-02   480   0.794E-02-0.140E-03
 gam= 0.981 trial= 0.543  step= 1.029 mean= 0.543
 gam= 1.053 g(H,U,f)=  0.651E-02 0.185E-02 0.000E+00 ort(H,U,f) =-0.388E-02 0.351E-02 0.000E+00
CGA:  16    -0.240936385235E+04   -0.39457E-02   -0.40151E-02   480   0.836E-02-0.374E-03
 gam= 1.053 trial= 0.567  step= 1.027 mean= 0.567
 gam= 1.181 g(H,U,f)=  0.814E-02 0.172E-02 0.000E+00 ort(H,U,f) =-0.409E-02 0.375E-02 0.000E+00
CGA:  17    -0.240936788095E+04   -0.40286E-02   -0.40906E-02   480   0.987E-02-0.335E-03
 gam= 1.181 trial= 0.590  step= 0.883 mean= 0.590
 gam= 1.128 g(H,U,f)=  0.932E-02 0.181E-02 0.000E+00 ort(H,U,f) =-0.364E-02 0.336E-02 0.000E+00
CGA:  18    -0.240937202712E+04   -0.41462E-02   -0.41801E-02   480   0.111E-01-0.277E-03
 gam= 1.128 trial= 0.605  step= 0.732 mean= 0.605
 gam= 0.849 g(H,U,f)=  0.862E-02 0.834E-03 0.000E+00 ort(H,U,f) =-0.294E-02 0.263E-02 0.000E+00
CGA:  19    -0.240937595741E+04   -0.39303E-02   -0.39568E-02   480   0.945E-02-0.305E-03
 gam= 0.849 trial= 0.611  step= 0.655 mean= 0.611
 gam= 0.792 g(H,U,f)=  0.696E-02 0.520E-03 0.000E+00 ort(H,U,f) =-0.446E-03 0.389E-03 0.000E+00
CGA:  20    -0.240937896734E+04   -0.30099E-02   -0.30125E-02   480   0.748E-02-0.569E-04
 gam= 0.792 trial= 0.613  step= 0.570 mean= 0.613
 gam= 0.631 g(H,U,f)=  0.439E-02 0.329E-03 0.000E+00 ort(H,U,f) = 0.524E-03-0.523E-03 0.000E+00
CGA:  21    -0.240938108969E+04   -0.21223E-02   -0.21211E-02   480   0.472E-02 0.104E-05
 gam= 0.631 trial= 0.611  step= 0.563 mean= 0.611
 gam= 0.647 g(H,U,f)=  0.277E-02 0.282E-03 0.000E+00 ort(H,U,f) = 0.458E-03-0.441E-03 0.000E+00
CGA:  22    -0.240938241958E+04   -0.13299E-02   -0.13299E-02   480   0.306E-02 0.176E-04
 gam= 0.647 trial= 0.609  step= 0.522 mean= 0.609
 gam= 0.574 g(H,U,f)=  0.159E-02 0.162E-03 0.000E+00 ort(H,U,f) = 0.303E-03-0.293E-03 0.000E+00
CGA:  23    -0.240938322056E+04   -0.80098E-03   -0.80059E-03   480   0.175E-02 0.102E-04
 gam= 0.574 trial= 0.604  step= 0.517 mean= 0.604
 gam= 0.597 g(H,U,f)=  0.922E-03 0.126E-03 0.000E+00 ort(H,U,f) = 0.177E-03-0.169E-03 0.000E+00
CGA:  24    -0.240938367513E+04   -0.45457E-03   -0.45470E-03   480   0.105E-02 0.763E-05
 gam= 0.597 trial= 0.600  step= 0.509 mean= 0.600
 gam= 0.585 g(H,U,f)=  0.540E-03 0.730E-04 0.000E+00 ort(H,U,f) = 0.766E-04-0.761E-04 0.000E+00
CGA:  25    -0.240938394317E+04   -0.26803E-03   -0.26784E-03   480   0.613E-03 0.473E-06
 gam= 0.585 trial= 0.595  step= 0.527 mean= 0.595
 gam= 0.625 g(H,U,f)=  0.332E-03 0.505E-04 0.000E+00 ort(H,U,f) = 0.228E-04-0.258E-04 0.000E+00
CGA:  26    -0.240938410486E+04   -0.16170E-03   -0.16157E-03   480   0.383E-03-0.300E-05
 gam= 0.625 trial= 0.592  step= 0.548 mean= 0.592
 gam= 0.680 g(H,U,f)=  0.219E-03 0.414E-04 0.000E+00 ort(H,U,f) =-0.115E-04 0.717E-05 0.000E+00
CGA:  27    -0.240938420936E+04   -0.10450E-03   -0.10439E-03   480   0.261E-03-0.431E-05
 gam= 0.680 trial= 0.590  step= 0.558 mean= 0.590
 gam= 0.734 g(H,U,f)=  0.158E-03 0.333E-04 0.000E+00 ort(H,U,f) =-0.283E-04 0.257E-04 0.000E+00
CGA:  28    -0.240938428123E+04   -0.71875E-04   -0.71827E-04   480   0.191E-03-0.266E-05
 gam= 0.734 trial= 0.588  step= 0.571 mean= 0.588
 gam= 0.856 g(H,U,f)=  0.130E-03 0.336E-04 0.000E+00 ort(H,U,f) =-0.336E-04 0.339E-04 0.000E+00
CGA:  29    -0.240938433532E+04   -0.54092E-04   -0.54093E-04   480   0.164E-03 0.271E-06
 gam= 0.856 trial= 0.587  step= 0.590 mean= 0.587
 gam= 0.897 g(H,U,f)=  0.116E-03 0.311E-04 0.000E+00 ort(H,U,f) =-0.477E-04 0.501E-04 0.000E+00
CGA:  30    -0.240938438370E+04   -0.48379E-04   -0.48376E-04   480   0.147E-03 0.240E-05
 gam= 0.897 trial= 0.587  step= 0.592 mean= 0.587
 gam= 0.965 g(H,U,f)=  0.117E-03 0.246E-04 0.000E+00 ort(H,U,f) =-0.562E-04 0.584E-04 0.000E+00
CGA:  31    -0.240938442782E+04   -0.44122E-04   -0.44118E-04   480   0.142E-03 0.222E-05
 gam= 0.965 trial= 0.588  step= 0.646 mean= 0.588
 gam= 1.049 g(H,U,f)=  0.126E-03 0.225E-04 0.000E+00 ort(H,U,f) =-0.621E-04 0.626E-04 0.000E+00
CGA:  32    -0.240938447436E+04   -0.46536E-04   -0.46521E-04   480   0.149E-03 0.500E-06
 gam= 1.049 trial= 0.591  step= 0.614 mean= 0.591
 gam= 1.007 g(H,U,f)=  0.132E-03 0.176E-04 0.000E+00 ort(H,U,f) =-0.682E-04 0.668E-04 0.000E+00
CGA:  33    -0.240938452021E+04   -0.45851E-04   -0.45868E-04   480   0.150E-03-0.137E-05
 gam= 1.007 trial= 0.592  step= 0.636 mean= 0.592
 gam= 1.047 g(H,U,f)=  0.140E-03 0.170E-04 0.000E+00 ort(H,U,f) =-0.619E-04 0.600E-04 0.000E+00
CGA:  34    -0.240938456736E+04   -0.47146E-04   -0.47189E-04   480   0.157E-03-0.191E-05
 gam= 1.047 trial= 0.594  step= 0.564 mean= 0.594
 gam= 0.865 g(H,U,f)=  0.127E-03 0.898E-05 0.000E+00 ort(H,U,f) =-0.454E-04 0.448E-04 0.000E+00
CGA:  35    -0.240938461104E+04   -0.43683E-04   -0.43677E-04   480   0.136E-03-0.553E-06
 gam= 0.865 trial= 0.592  step= 0.551 mean= 0.592
 gam= 0.841 g(H,U,f)=  0.105E-03 0.861E-05 0.000E+00 ort(H,U,f) =-0.169E-04 0.177E-04 0.000E+00
CGA:  36    -0.240938464827E+04   -0.37230E-04   -0.37246E-04   480   0.114E-03 0.750E-06
 gam= 0.841 trial= 0.590  step= 0.522 mean= 0.590
 gam= 0.000 g(H,U,f)=  0.776E-04 0.517E-05 0.000E+00 ort(H,U,f) =-0.367E-05 0.473E-05 0.000E+00
SDA:  37    -0.240938467817E+04   -0.29899E-04   -0.29937E-04   480   0.828E-04 0.106E-05
 gam= 0.000 trial= 0.587  step= 1.201 mean= 0.587
 gam= 0.403 g(H,U,f)=  0.300E-04 0.342E-05 0.000E+00 ort(H,U,f) =-0.276E-06-0.711E-06 0.000E+00
CGA:  38    -0.240938472762E+04   -0.49448E-04   -0.49736E-04   480   0.334E-04-0.987E-06
 gam= 0.403 trial= 0.618  step= 0.822 mean= 0.618
 gam= 0.390 g(H,U,f)=  0.112E-04 0.179E-05 0.000E+00 ort(H,U,f) = 0.198E-05-0.136E-05 0.000E+00
CGA:  39    -0.240938474124E+04   -0.13627E-04   -0.13563E-04   480   0.130E-04 0.623E-06
 gam= 0.390 trial= 0.628  step= 0.899 mean= 0.628
 gam= 0.403 g(H,U,f)=  0.468E-05 0.573E-06 0.000E+00 ort(H,U,f) = 0.697E-06-0.166E-06 0.000E+00
CGA:  40    -0.240938474729E+04   -0.60426E-05   -0.59697E-05   480   0.526E-05 0.530E-06
 gam= 0.403 trial= 0.642  step= 0.951 mean= 0.642
   1 F= -.24093847E+04 E0= -.24093847E+04  d E =-.240938E+04  mag=     2.0000
 BRION: g(F)=  0.922E+00 g(S)=  0.000E+00
 bond charge predicted
 writing wavefunctions

 ----------------------------------------------------------------------------- 
|                                                                             |
|           W    W    AA    RRRRR   N    N  II  N    N   GGGG   !!!           |
|           W    W   A  A   R    R  NN   N  II  NN   N  G    G  !!!           |
|           W    W  A    A  R    R  N N  N  II  N N  N  G       !!!           |
|           W WW W  AAAAAA  RRRRR   N  N N  II  N  N N  G  GGG   !            |
|           WW  WW  A    A  R   R   N   NN  II  N   NN  G    G                |
|           W    W  A    A  R    R  N    N  II  N    N   GGGG   !!!           |
|                                                                             |
|      ALGO=A and IALGO=5X tend to fail with the tetrahedron method           |
|      (e.g. Bloechls method ISMEAR=-5 is not variational)                    |
|      please switch to IMSEAR=0-n, except for DOS calculations               |
|      For DOS calculations use IALGO=53 after preconverging with ISMEAR>=0   |
|          I HOPE YOU KNOW, WHAT YOU ARE  DOING                               |
|                                                                             |
 ----------------------------------------------------------------------------- 

       N       E                     dE             d eps       ncg     rms          ort
 gam= 0.000 g(H,U,f)=  0.242E+02 0.191E+01 0.000E+00 ort(H,U,f) = 0.000E+00 0.000E+00 0.000E+00
SDA:   1    -0.239704182812E+04    0.12343E+02    0.00000E+00   480   0.261E+02 0.000E+00
 gam= 0.000 trial= 0.657  step= 0.748 mean= 0.657
 gam= 0.281 g(H,U,f)=  0.573E+01 0.161E+01 0.000E+00 ort(H,U,f) =-0.401E+00-0.898E+00 0.000E+00
CGA:   2    -0.240677943506E+04   -0.97376E+01   -0.97727E+01   480   0.734E+01-0.130E+01
 gam= 0.281 trial= 0.662  step= 0.447 mean= 0.662
 gam= 0.335 g(H,U,f)=  0.217E+01 0.289E+00 0.000E+00 ort(H,U,f) = 0.224E+01-0.634E-02 0.000E+00
CGA:   3    -0.240792219325E+04   -0.11428E+01   -0.15591E+01   480   0.246E+01 0.223E+01
 gam= 0.335 trial= 0.651  step= 0.503 mean= 0.651
 gam= 0.460 g(H,U,f)=  0.945E+00 0.187E+00 0.000E+00 ort(H,U,f) = 0.362E+00 0.543E-02 0.000E+00
CGA:   4    -0.240870048097E+04   -0.77829E+00   -0.80553E+00   480   0.113E+01 0.368E+00
 gam= 0.460 trial= 0.643  step= 0.380 mean= 0.643
 gam= 0.481 g(H,U,f)=  0.497E+00 0.473E-01 0.000E+00 ort(H,U,f) = 0.826E-01 0.226E-01 0.000E+00
CGA:   5    -0.240892435960E+04   -0.22388E+00   -0.24690E+00   480   0.544E+00 0.105E+00
 gam= 0.481 trial= 0.630  step= 0.372 mean= 0.630
 gam= 0.628 g(H,U,f)=  0.306E+00 0.351E-01 0.000E+00 ort(H,U,f) = 0.826E-01-0.933E-02 0.000E+00
CGA:   6    -0.240901953022E+04   -0.95171E-01   -0.11055E+00   480   0.342E+00 0.733E-01
 gam= 0.628 trial= 0.617  step= 0.337 mean= 0.617
 gam= 0.692 g(H,U,f)=  0.215E+00 0.213E-01 0.000E+00 ort(H,U,f) = 0.842E-01-0.315E-02 0.000E+00
CGA:   7    -0.240906905448E+04   -0.49524E-01   -0.65391E-01   480   0.236E+00 0.810E-01
 gam= 0.692 trial= 0.603  step= 0.291 mean= 0.603
 gam= 0.750 g(H,U,f)=  0.161E+00 0.167E-01 0.000E+00 ort(H,U,f) = 0.612E-01-0.245E-02 0.000E+00
CGA:   8    -0.240909851559E+04   -0.29461E-01   -0.42619E-01   480   0.177E+00 0.588E-01
 gam= 0.750 trial= 0.588  step= 0.242 mean= 0.588
 gam= 0.776 g(H,U,f)=  0.125E+00 0.127E-01 0.000E+00 ort(H,U,f) = 0.432E-01 0.220E-02 0.000E+00
CGA:   9    -0.240911370427E+04   -0.15189E-01   -0.26776E-01   480   0.138E+00 0.454E-01
 gam= 0.776 trial= 0.570  step= 0.203 mean= 0.570
 gam= 0.853 g(H,U,f)=  0.109E+00 0.807E-02 0.000E+00 ort(H,U,f) = 0.377E-01 0.351E-02 0.000E+00
CGA:  10    -0.240911925600E+04   -0.55517E-02   -0.17555E-01   480   0.117E+00 0.412E-01
 gam= 0.853 trial= 0.552  step= 0.177 mean= 0.552
 gam= 0.992 g(H,U,f)=  0.109E+00 0.730E-02 0.000E+00 ort(H,U,f) = 0.436E-01 0.123E-02 0.000E+00
CGA:  11    -0.240911974399E+04   -0.48799E-03   -0.13489E-01   480   0.117E+00 0.449E-01
 gam= 0.992 trial= 0.533  step= 0.148 mean= 0.533
 gam= 1.104 g(H,U,f)=  0.120E+00 0.854E-02 0.000E+00 ort(H,U,f) = 0.568E-01 0.106E-03 0.000E+00
CGA:  12    -0.240911484177E+04    0.49022E-02   -0.11913E-01   480   0.129E+00 0.569E-01
 gam= 1.104 trial= 0.514  step= 0.116 mean= 0.514
 gam= 0.000 g(H,U,f)=  0.154E+00 0.959E-02 0.000E+00 ort(H,U,f) = 0.974E-01 0.728E-03 0.000E+00
CGA:  13    -0.240909715388E+04    0.17688E-01   -0.11146E-01   480   0.163E+00 0.981E-01
 gam= 0.000 trial= 0.494  step= 0.810 mean= 0.494
 gam= 0.250 g(H,U,f)=  0.319E-01 0.901E-02 0.000E+00 ort(H,U,f) =-0.154E-02-0.428E-02 0.000E+00
CGA:  14    -0.240916289057E+04   -0.65737E-01   -0.66157E-01   480   0.409E-01-0.583E-02
 gam= 0.250 trial= 0.510  step= 0.476 mean= 0.510
 gam= 0.189 g(H,U,f)=  0.693E-02 0.784E-03 0.000E+00 ort(H,U,f) = 0.161E-02-0.136E-02 0.000E+00
CGA:  15    -0.240917225634E+04   -0.93658E-02   -0.93729E-02   480   0.771E-02 0.249E-03
 gam= 0.189 trial= 0.508  step= 0.727 mean= 0.508
 gam= 0.234 g(H,U,f)=  0.163E-02 0.178E-03 0.000E+00 ort(H,U,f) =-0.115E-03-0.146E-03 0.000E+00
CGA:  16    -0.240917505927E+04   -0.28029E-02   -0.28216E-02   480   0.181E-02-0.261E-03
 gam= 0.234 trial= 0.519  step= 0.662 mean= 0.519
 gam= 0.328 g(H,U,f)=  0.530E-03 0.621E-04 0.000E+00 ort(H,U,f) = 0.596E-05-0.423E-04 0.000E+00
CGA:  17    -0.240917563363E+04   -0.57435E-03   -0.57740E-03   480   0.592E-03-0.363E-04
 gam= 0.328 trial= 0.526  step= 0.699 mean= 0.526
 gam= 0.446 g(H,U,f)=  0.232E-03 0.323E-04 0.000E+00 ort(H,U,f) = 0.183E-04-0.244E-04 0.000E+00
CGA:  18    -0.240917583609E+04   -0.20246E-03   -0.20284E-03   480   0.264E-03-0.607E-05
 gam= 0.446 trial= 0.535  step= 0.625 mean= 0.535
 gam= 0.272 g(H,U,f)=  0.682E-04 0.356E-05 0.000E+00 ort(H,U,f) =-0.304E-05-0.263E-05 0.000E+00
CGA:  19    -0.240917591739E+04   -0.81300E-04   -0.81639E-04   480   0.718E-04-0.566E-05
 gam= 0.272 trial= 0.539  step= 0.768 mean= 0.539
 gam= 0.511 g(H,U,f)=  0.319E-04 0.479E-05 0.000E+00 ort(H,U,f) = 0.109E-05-0.241E-05 0.000E+00
CGA:  20    -0.240917594420E+04   -0.26813E-04   -0.26951E-04   480   0.367E-04-0.132E-05
 gam= 0.511 trial= 0.551  step= 0.631 mean= 0.551
 gam= 0.374 g(H,U,f)=  0.128E-04 0.912E-06 0.000E+00 ort(H,U,f) = 0.562E-06-0.856E-06 0.000E+00
CGA:  21    -0.240917595554E+04   -0.11336E-04   -0.11355E-04   480   0.137E-04-0.294E-06
 gam= 0.374 trial= 0.555  step= 0.699 mean= 0.555
 gam= 0.452 g(H,U,f)=  0.564E-05 0.556E-06 0.000E+00 ort(H,U,f) = 0.442E-06-0.333E-06 0.000E+00
CGA:  22    -0.240917596030E+04   -0.47649E-05   -0.47569E-05   480   0.620E-05 0.109E-06
 gam= 0.452 trial= 0.562  step= 0.676 mean= 0.562
   2 F= -.24091760E+04 E0= -.24091760E+04  d E =0.208787E+00  mag=     2.0000
 BRION: g(F)=  0.326E+01 g(S)=  0.000E+00 retain N=  1 mean eig= 0.33
 eig:   0.331
 bond charge predicted
 writing wavefunctions

 ----------------------------------------------------------------------------- 
|                                                                             |
|           W    W    AA    RRRRR   N    N  II  N    N   GGGG   !!!           |
|           W    W   A  A   R    R  NN   N  II  NN   N  G    G  !!!           |
|           W    W  A    A  R    R  N N  N  II  N N  N  G       !!!           |
|           W WW W  AAAAAA  RRRRR   N  N N  II  N  N N  G  GGG   !            |
|           WW  WW  A    A  R   R   N   NN  II  N   NN  G    G                |
|           W    W  A    A  R    R  N    N  II  N    N   GGGG   !!!           |
|                                                                             |
|      ALGO=A and IALGO=5X tend to fail with the tetrahedron method           |
|      (e.g. Bloechls method ISMEAR=-5 is not variational)                    |
|      please switch to IMSEAR=0-n, except for DOS calculations               |
|      For DOS calculations use IALGO=53 after preconverging with ISMEAR>=0   |
|          I HOPE YOU KNOW, WHAT YOU ARE  DOING                               |
|                                                                             |
 ----------------------------------------------------------------------------- 

       N       E                     dE             d eps       ncg     rms          ort
 gam= 0.000 g(H,U,f)=  0.104E+02 0.562E+00 0.000E+00 ort(H,U,f) = 0.000E+00 0.000E+00 0.000E+00
SDA:   1    -0.240452028446E+04    0.46557E+01    0.00000E+00   480   0.109E+02 0.000E+00
 gam= 0.000 trial= 0.568  step= 0.804 mean= 0.568
 gam= 0.192 g(H,U,f)=  0.184E+01 0.260E+00 0.000E+00 ort(H,U,f) =-0.574E+00-0.238E+00 0.000E+00
CGA:   2    -0.240883687915E+04   -0.43166E+01   -0.43912E+01   480   0.210E+01-0.812E+00
 gam= 0.192 trial= 0.580  step= 0.597 mean= 0.580
 gam= 0.215 g(H,U,f)=  0.404E+00 0.485E-01 0.000E+00 ort(H,U,f) = 0.528E-01-0.309E-01 0.000E+00
CGA:   3    -0.240941774521E+04   -0.58087E+00   -0.58040E+00   480   0.452E+00 0.220E-01
 gam= 0.215 trial= 0.580  step= 0.648 mean= 0.580
 gam= 0.325 g(H,U,f)=  0.134E+00 0.130E-01 0.000E+00 ort(H,U,f) = 0.181E-02-0.655E-02 0.000E+00
CGA:   4    -0.240956554963E+04   -0.14780E+00   -0.14797E+00   480   0.147E+00-0.474E-02
 gam= 0.325 trial= 0.584  step= 0.617 mean= 0.584
 gam= 0.300 g(H,U,f)=  0.414E-01 0.265E-02 0.000E+00 ort(H,U,f) = 0.222E-02-0.193E-02 0.000E+00
CGA:   5    -0.240961048756E+04   -0.44938E-01   -0.44916E-01   480   0.441E-01 0.286E-03
 gam= 0.300 trial= 0.585  step= 0.633 mean= 0.585
 gam= 0.381 g(H,U,f)=  0.156E-01 0.122E-02 0.000E+00 ort(H,U,f) = 0.890E-05-0.594E-03 0.000E+00
CGA:   6    -0.240962446212E+04   -0.13975E-01   -0.13995E-01   480   0.168E-01-0.585E-03
 gam= 0.381 trial= 0.588  step= 0.618 mean= 0.588
 gam= 0.364 g(H,U,f)=  0.571E-02 0.407E-03 0.000E+00 ort(H,U,f) =-0.654E-04-0.112E-03 0.000E+00
CGA:   7    -0.240962957371E+04   -0.51116E-02   -0.51159E-02   480   0.612E-02-0.178E-03
 gam= 0.364 trial= 0.589  step= 0.647 mean= 0.589
 gam= 0.406 g(H,U,f)=  0.228E-02 0.202E-03 0.000E+00 ort(H,U,f) =-0.144E-04-0.366E-04 0.000E+00
CGA:   8    -0.240963153093E+04   -0.19572E-02   -0.19591E-02   480   0.248E-02-0.510E-04
 gam= 0.406 trial= 0.592  step= 0.608 mean= 0.592
 gam= 0.393 g(H,U,f)=  0.927E-03 0.496E-04 0.000E+00 ort(H,U,f) = 0.282E-04-0.389E-04 0.000E+00
CGA:   9    -0.240963227910E+04   -0.74817E-03   -0.74831E-03   480   0.977E-03-0.107E-04
 gam= 0.393 trial= 0.593  step= 0.665 mean= 0.593
 gam= 0.426 g(H,U,f)=  0.381E-03 0.350E-04 0.000E+00 ort(H,U,f) = 0.281E-05-0.115E-04 0.000E+00
CGA:  10    -0.240963260218E+04   -0.32308E-03   -0.32344E-03   480   0.416E-03-0.867E-05
 gam= 0.426 trial= 0.597  step= 0.591 mean= 0.597
 gam= 0.466 g(H,U,f)=  0.180E-03 0.135E-04 0.000E+00 ort(H,U,f) = 0.220E-06-0.192E-05 0.000E+00
CGA:  11    -0.240963272415E+04   -0.12197E-03   -0.12196E-03   480   0.194E-03-0.170E-05
 gam= 0.466 trial= 0.596  step= 0.616 mean= 0.596
 gam= 0.450 g(H,U,f)=  0.829E-04 0.421E-05 0.000E+00 ort(H,U,f) =-0.319E-07-0.195E-06 0.000E+00
CGA:  12    -0.240963278361E+04   -0.59460E-04   -0.59463E-04   480   0.872E-04-0.226E-06
 gam= 0.450 trial= 0.597  step= 0.588 mean= 0.597
 gam= 0.496 g(H,U,f)=  0.403E-04 0.291E-05 0.000E+00 ort(H,U,f) = 0.158E-05-0.182E-05 0.000E+00
CGA:  13    -0.240963280919E+04   -0.25586E-04   -0.25585E-04   480   0.432E-04-0.244E-06
 gam= 0.496 trial= 0.597  step= 0.578 mean= 0.597
 gam= 0.448 g(H,U,f)=  0.183E-04 0.107E-05 0.000E+00 ort(H,U,f) =-0.333E-07-0.293E-06 0.000E+00
CGA:  14    -0.240963282165E+04   -0.12456E-04   -0.12452E-04   480   0.194E-04-0.326E-06
 gam= 0.448 trial= 0.596  step= 0.595 mean= 0.596
 gam= 0.493 g(H,U,f)=  0.894E-05 0.625E-06 0.000E+00 ort(H,U,f) =-0.726E-07-0.353E-07 0.000E+00
CGA:  15    -0.240963282738E+04   -0.57282E-05   -0.57282E-05   480   0.956E-05-0.108E-06
 gam= 0.493 trial= 0.596  step= 0.562 mean= 0.596
   3 F= -.24096328E+04 E0= -.24096328E+04  d E =-.456867E+00  mag=     2.0000
 BRION: g(F)=  0.176E+00 g(S)=  0.000E+00 retain N=  1 mean eig= 0.28
 eig:   0.282
 bond charge predicted
 writing wavefunctions

 ----------------------------------------------------------------------------- 
|                                                                             |
|           W    W    AA    RRRRR   N    N  II  N    N   GGGG   !!!           |
|           W    W   A  A   R    R  NN   N  II  NN   N  G    G  !!!           |
|           W    W  A    A  R    R  N N  N  II  N N  N  G       !!!           |
|           W WW W  AAAAAA  RRRRR   N  N N  II  N  N N  G  GGG   !            |
|           WW  WW  A    A  R   R   N   NN  II  N   NN  G    G                |
|           W    W  A    A  R    R  N    N  II  N    N   GGGG   !!!           |
|                                                                             |
|      ALGO=A and IALGO=5X tend to fail with the tetrahedron method           |
|      (e.g. Bloechls method ISMEAR=-5 is not variational)                    |
|      please switch to IMSEAR=0-n, except for DOS calculations               |
|      For DOS calculations use IALGO=53 after preconverging with ISMEAR>=0   |
|          I HOPE YOU KNOW, WHAT YOU ARE  DOING                               |
|                                                                             |
 ----------------------------------------------------------------------------- 

       N       E                     dE             d eps       ncg     rms          ort
 gam= 0.000 g(H,U,f)=  0.222E+01 0.166E+00 0.000E+00 ort(H,U,f) = 0.000E+00 0.000E+00 0.000E+00
SDA:   1    -0.240856776761E+04    0.10651E+01    0.00000E+00   480   0.238E+01 0.000E+00
 gam= 0.000 trial= 0.594  step= 0.708 mean= 0.594
 gam= 0.294 g(H,U,f)=  0.557E+00 0.143E+00 0.000E+00 ort(H,U,f) = 0.633E-01-0.101E+00 0.000E+00
CGA:   2    -0.240941068619E+04   -0.84292E+00   -0.84354E+00   480   0.700E+00-0.378E-01
 gam= 0.294 trial= 0.600  step= 0.506 mean= 0.600
 gam= 0.177 g(H,U,f)=  0.105E+00 0.183E-01 0.000E+00 ort(H,U,f) = 0.468E-01-0.154E-01 0.000E+00
CGA:   3    -0.240958232584E+04   -0.17164E+00   -0.17425E+00   480   0.124E+00 0.315E-01
 gam= 0.177 trial= 0.595  step= 0.599 mean= 0.595
 gam= 0.234 g(H,U,f)=  0.262E-01 0.276E-02 0.000E+00 ort(H,U,f) = 0.763E-03-0.934E-03 0.000E+00
CGA:   4    -0.240962103504E+04   -0.38709E-01   -0.38710E-01   480   0.289E-01-0.171E-03
 gam= 0.234 trial= 0.595  step= 0.685 mean= 0.595
 gam= 0.279 g(H,U,f)=  0.730E-02 0.762E-03 0.000E+00 ort(H,U,f) =-0.259E-04-0.235E-03 0.000E+00
CGA:   5    -0.240963091655E+04   -0.98815E-02   -0.98915E-02   480   0.806E-02-0.261E-03
 gam= 0.279 trial= 0.600  step= 0.629 mean= 0.600
 gam= 0.418 g(H,U,f)=  0.292E-02 0.446E-03 0.000E+00 ort(H,U,f) = 0.311E-03-0.338E-03 0.000E+00
CGA:   6    -0.240963342918E+04   -0.25126E-02   -0.25132E-02   480   0.337E-02-0.269E-04
 gam= 0.418 trial= 0.601  step= 0.601 mean= 0.601
 gam= 0.316 g(H,U,f)=  0.971E-03 0.947E-04 0.000E+00 ort(H,U,f) = 0.404E-04-0.561E-04 0.000E+00
CGA:   7    -0.240963443750E+04   -0.10083E-02   -0.10083E-02   480   0.107E-02-0.157E-04
 gam= 0.316 trial= 0.601  step= 0.719 mean= 0.601
 gam= 0.354 g(H,U,f)=  0.343E-03 0.352E-04 0.000E+00 ort(H,U,f) =-0.283E-05-0.300E-05 0.000E+00
CGA:   8    -0.240963481856E+04   -0.38107E-03   -0.38136E-03   480   0.378E-03-0.583E-05
 gam= 0.354 trial= 0.607  step= 0.622 mean= 0.607
 gam= 0.392 g(H,U,f)=  0.132E-03 0.161E-04 0.000E+00 ort(H,U,f) = 0.106E-04-0.115E-04 0.000E+00
CGA:   9    -0.240963493532E+04   -0.11676E-03   -0.11677E-03   480   0.148E-03-0.827E-06
 gam= 0.392 trial= 0.608  step= 0.648 mean= 0.608
 gam= 0.364 g(H,U,f)=  0.490E-04 0.494E-05 0.000E+00 ort(H,U,f) = 0.375E-05-0.426E-05 0.000E+00
CGA:  10    -0.240963498319E+04   -0.47872E-04   -0.47889E-04   480   0.539E-04-0.514E-06
 gam= 0.364 trial= 0.610  step= 0.687 mean= 0.610
 gam= 0.417 g(H,U,f)=  0.202E-04 0.226E-05 0.000E+00 ort(H,U,f) = 0.599E-06-0.757E-06 0.000E+00
CGA:  11    -0.240963500163E+04   -0.18436E-04   -0.18444E-04   480   0.225E-04-0.158E-06
 gam= 0.417 trial= 0.614  step= 0.677 mean= 0.614
 gam= 0.444 g(H,U,f)=  0.910E-05 0.887E-06 0.000E+00 ort(H,U,f) = 0.231E-06-0.431E-06 0.000E+00
CGA:  12    -0.240963500920E+04   -0.75751E-05   -0.75820E-05   480   0.999E-05-0.199E-06
 gam= 0.444 trial= 0.617  step= 0.660 mean= 0.617
   4 F= -.24096350E+04 E0= -.24096350E+04  d E =-.218183E-02  mag=     2.0000
 BRION: g(F)=  0.223E+00 g(S)=  0.000E+00 retain N=  2 mean eig= 0.09
 eig:   0.169  0.011
 bond charge predicted
 writing wavefunctions

 ----------------------------------------------------------------------------- 
|                                                                             |
|           W    W    AA    RRRRR   N    N  II  N    N   GGGG   !!!           |
|           W    W   A  A   R    R  NN   N  II  NN   N  G    G  !!!           |
|           W    W  A    A  R    R  N N  N  II  N N  N  G       !!!           |
|           W WW W  AAAAAA  RRRRR   N  N N  II  N  N N  G  GGG   !            |
|           WW  WW  A    A  R   R   N   NN  II  N   NN  G    G                |
|           W    W  A    A  R    R  N    N  II  N    N   GGGG   !!!           |
|                                                                             |
|      ALGO=A and IALGO=5X tend to fail with the tetrahedron method           |
|      (e.g. Bloechls method ISMEAR=-5 is not variational)                    |
|      please switch to IMSEAR=0-n, except for DOS calculations               |
|      For DOS calculations use IALGO=53 after preconverging with ISMEAR>=0   |
|          I HOPE YOU KNOW, WHAT YOU ARE  DOING                               |
|                                                                             |
 ----------------------------------------------------------------------------- 

       N       E                     dE             d eps       ncg     rms          ort
 gam= 0.000 g(H,U,f)=  0.767E+00 0.385E-01 0.000E+00 ort(H,U,f) = 0.000E+00 0.000E+00 0.000E+00
SDA:   1    -0.240928979796E+04    0.34520E+00    0.00000E+00   480   0.806E+00 0.000E+00
 gam= 0.000 trial= 0.619  step= 0.804 mean= 0.619
 gam= 0.199 g(H,U,f)=  0.137E+00 0.240E-01 0.000E+00 ort(H,U,f) = 0.324E-02-0.191E-01 0.000E+00
CGA:   2    -0.240961231064E+04   -0.32251E+00   -0.32374E+00   480   0.161E+00-0.159E-01
 gam= 0.199 trial= 0.628  step= 0.575 mean= 0.628
 gam= 0.174 g(H,U,f)=  0.234E-01 0.458E-02 0.000E+00 ort(H,U,f) = 0.657E-02-0.480E-02 0.000E+00
CGA:   3    -0.240965752875E+04   -0.45218E-01   -0.45311E-01   480   0.279E-01 0.177E-02
 gam= 0.174 trial= 0.626  step= 0.574 mean= 0.626
 gam= 0.233 g(H,U,f)=  0.566E-02 0.849E-03 0.000E+00 ort(H,U,f) = 0.817E-03-0.688E-03 0.000E+00
CGA:   4    -0.240966563212E+04   -0.81034E-02   -0.81092E-02   480   0.651E-02 0.129E-03
 gam= 0.233 trial= 0.623  step= 0.663 mean= 0.623
 gam= 0.248 g(H,U,f)=  0.149E-02 0.128E-03 0.000E+00 ort(H,U,f) = 0.114E-03-0.118E-03 0.000E+00
CGA:   5    -0.240966780080E+04   -0.21687E-02   -0.21687E-02   480   0.161E-02-0.433E-05
 gam= 0.248 trial= 0.625  step= 0.766 mean= 0.625
 gam= 0.351 g(H,U,f)=  0.510E-03 0.568E-04 0.000E+00 ort(H,U,f) = 0.297E-04-0.392E-04 0.000E+00
CGA:   6    -0.240966841775E+04   -0.61695E-03   -0.61758E-03   480   0.567E-03-0.945E-05
 gam= 0.351 trial= 0.632  step= 0.755 mean= 0.632
 gam= 0.386 g(H,U,f)=  0.193E-03 0.260E-04 0.000E+00 ort(H,U,f) = 0.143E-04-0.159E-04 0.000E+00
CGA:   7    -0.240966863043E+04   -0.21268E-03   -0.21277E-03   480   0.219E-03-0.158E-05
 gam= 0.386 trial= 0.638  step= 0.727 mean= 0.638
 gam= 0.320 g(H,U,f)=  0.627E-04 0.734E-05 0.000E+00 ort(H,U,f) = 0.482E-05-0.484E-05 0.000E+00
CGA:   8    -0.240966870971E+04   -0.79276E-04   -0.79275E-04   480   0.700E-04-0.226E-07
 gam= 0.320 trial= 0.643  step= 0.735 mean= 0.643
 gam= 0.384 g(H,U,f)=  0.234E-04 0.345E-05 0.000E+00 ort(H,U,f) = 0.365E-05-0.331E-05 0.000E+00
CGA:   9    -0.240966873544E+04   -0.25736E-04   -0.25720E-04   480   0.269E-04 0.338E-06
 gam= 0.384 trial= 0.647  step= 0.714 mean= 0.647
 gam= 0.374 g(H,U,f)=  0.903E-05 0.103E-05 0.000E+00 ort(H,U,f) = 0.890E-06-0.930E-06 0.000E+00
CGA:  10    -0.240966874508E+04   -0.96320E-05   -0.96337E-05   480   0.101E-04-0.396E-07
 gam= 0.374 trial= 0.651  step= 0.882 mean= 0.651
   5 F= -.24096687E+04 E0= -.24096687E+04  d E =-.337359E-01  mag=     2.0000
 BRION: g(F)=  0.182E-01 g(S)=  0.000E+00 retain N=  2 mean eig= 2.64
 eig:   0.292  4.993
 bond charge predicted
 writing wavefunctions

 ----------------------------------------------------------------------------- 
|                                                                             |
|           W    W    AA    RRRRR   N    N  II  N    N   GGGG   !!!           |
|           W    W   A  A   R    R  NN   N  II  NN   N  G    G  !!!           |
|           W    W  A    A  R    R  N N  N  II  N N  N  G       !!!           |
|           W WW W  AAAAAA  RRRRR   N  N N  II  N  N N  G  GGG   !            |
|           WW  WW  A    A  R   R   N   NN  II  N   NN  G    G                |
|           W    W  A    A  R    R  N    N  II  N    N   GGGG   !!!           |
|                                                                             |
|      ALGO=A and IALGO=5X tend to fail with the tetrahedron method           |
|      (e.g. Bloechls method ISMEAR=-5 is not variational)                    |
|      please switch to IMSEAR=0-n, except for DOS calculations               |
|      For DOS calculations use IALGO=53 after preconverging with ISMEAR>=0   |
|          I HOPE YOU KNOW, WHAT YOU ARE  DOING                               |
|                                                                             |
 ----------------------------------------------------------------------------- 

       N       E                     dE             d eps       ncg     rms          ort
 gam= 0.000 g(H,U,f)=  0.193E+00 0.158E-01 0.000E+00 ort(H,U,f) = 0.000E+00 0.000E+00 0.000E+00
SDA:   1    -0.240957842246E+04    0.90313E-01    0.00000E+00   480   0.208E+00 0.000E+00
 gam= 0.000 trial= 0.662  step= 0.689 mean= 0.662
 gam= 0.320 g(H,U,f)=  0.518E-01 0.148E-01 0.000E+00 ort(H,U,f) = 0.107E-01-0.108E-01 0.000E+00
CGA:   2    -0.240965020652E+04   -0.71784E-01   -0.71782E-01   480   0.666E-01-0.686E-04
 gam= 0.320 trial= 0.663  step= 0.531 mean= 0.663
 gam= 0.135 g(H,U,f)=  0.763E-02 0.138E-02 0.000E+00 ort(H,U,f) = 0.292E-02-0.162E-02 0.000E+00
CGA:   3    -0.240966772002E+04   -0.17514E-01   -0.17692E-01   480   0.902E-02 0.130E-02
 gam= 0.135 trial= 0.657  step= 0.617 mean= 0.657
 gam= 0.200 g(H,U,f)=  0.161E-02 0.202E-03 0.000E+00 ort(H,U,f) = 0.138E-03-0.130E-03 0.000E+00
CGA:   4    -0.240967055594E+04   -0.28359E-02   -0.28361E-02   480   0.181E-02 0.742E-05
 gam= 0.200 trial= 0.655  step= 0.756 mean= 0.655
 gam= 0.223 g(H,U,f)=  0.380E-03 0.234E-04 0.000E+00 ort(H,U,f) = 0.153E-04-0.207E-04 0.000E+00
CGA:   5    -0.240967123927E+04   -0.68333E-03   -0.68365E-03   480   0.404E-03-0.539E-05
 gam= 0.223 trial= 0.660  step= 0.899 mean= 0.660
 gam= 0.380 g(H,U,f)=  0.131E-03 0.228E-04 0.000E+00 ort(H,U,f) = 0.849E-05-0.109E-04 0.000E+00
CGA:   6    -0.240967141998E+04   -0.18072E-03   -0.18096E-03   480   0.153E-03-0.243E-05
 gam= 0.380 trial= 0.672  step= 0.718 mean= 0.672
 gam= 0.422 g(H,U,f)=  0.531E-04 0.117E-04 0.000E+00 ort(H,U,f) = 0.763E-05-0.792E-05 0.000E+00
CGA:   7    -0.240967147472E+04   -0.54737E-04   -0.54751E-04   480   0.648E-04-0.287E-06
 gam= 0.422 trial= 0.674  step= 0.665 mean= 0.674
 gam= 0.296 g(H,U,f)=  0.175E-04 0.166E-05 0.000E+00 ort(H,U,f) = 0.139E-05-0.155E-05 0.000E+00
CGA:   8    -0.240967149622E+04   -0.21500E-04   -0.21498E-04   480   0.192E-04-0.154E-06
 gam= 0.296 trial= 0.674  step= 0.827 mean= 0.674
 gam= 0.345 g(H,U,f)=  0.610E-05 0.512E-06 0.000E+00 ort(H,U,f) = 0.533E-06-0.480E-06 0.000E+00
CGA:   9    -0.240967150413E+04   -0.79123E-05   -0.79088E-05   480   0.662E-05 0.529E-07
 gam= 0.345 trial= 0.681  step= 0.896 mean= 0.681
   6 F= -.24096715E+04 E0= -.24096715E+04  d E =-.275905E-02  mag=     2.0000
 BRION: g(F)=  0.146E-01 g(S)=  0.000E+00 retain N=  3 mean eig= 2.41
 eig:   0.154  0.154  6.910
 bond charge predicted
 writing wavefunctions

 ----------------------------------------------------------------------------- 
|                                                                             |
|           W    W    AA    RRRRR   N    N  II  N    N   GGGG   !!!           |
|           W    W   A  A   R    R  NN   N  II  NN   N  G    G  !!!           |
|           W    W  A    A  R    R  N N  N  II  N N  N  G       !!!           |
|           W WW W  AAAAAA  RRRRR   N  N N  II  N  N N  G  GGG   !            |
|           WW  WW  A    A  R   R   N   NN  II  N   NN  G    G                |
|           W    W  A    A  R    R  N    N  II  N    N   GGGG   !!!           |
|                                                                             |
|      ALGO=A and IALGO=5X tend to fail with the tetrahedron method           |
|      (e.g. Bloechls method ISMEAR=-5 is not variational)                    |
|      please switch to IMSEAR=0-n, except for DOS calculations               |
|      For DOS calculations use IALGO=53 after preconverging with ISMEAR>=0   |
|          I HOPE YOU KNOW, WHAT YOU ARE  DOING                               |
|                                                                             |
 ----------------------------------------------------------------------------- 

       N       E                     dE             d eps       ncg     rms          ort
 gam= 0.000 g(H,U,f)=  0.649E-01 0.399E-02 0.000E+00 ort(H,U,f) = 0.000E+00 0.000E+00 0.000E+00
SDA:   1    -0.240964119327E+04    0.30303E-01    0.00000E+00   480   0.689E-01 0.000E+00
 gam= 0.000 trial= 0.692  step= 0.783 mean= 0.692
 gam= 0.251 g(H,U,f)=  0.142E-01 0.308E-02 0.000E+00 ort(H,U,f) = 0.222E-02-0.238E-02 0.000E+00
CGA:   2    -0.240966814418E+04   -0.26951E-01   -0.26956E-01   480   0.173E-01-0.166E-03
 gam= 0.251 trial= 0.697  step= 0.547 mean= 0.697
 gam= 0.163 g(H,U,f)=  0.231E-02 0.511E-03 0.000E+00 ort(H,U,f) = 0.656E-03-0.528E-03 0.000E+00
CGA:   3    -0.240967284792E+04   -0.47037E-02   -0.47238E-02   480   0.282E-02 0.128E-03
 gam= 0.163 trial= 0.689  step= 0.568 mean= 0.689
 gam= 0.194 g(H,U,f)=  0.482E-03 0.640E-04 0.000E+00 ort(H,U,f) = 0.696E-04-0.687E-04 0.000E+00
CGA:   4    -0.240967365366E+04   -0.80575E-03   -0.80581E-03   480   0.546E-03 0.951E-06
 gam= 0.194 trial= 0.683  step= 0.765 mean= 0.683
 gam= 0.236 g(H,U,f)=  0.118E-03 0.103E-04 0.000E+00 ort(H,U,f) = 0.893E-05-0.928E-05 0.000E+00
CGA:   5    -0.240967386261E+04   -0.20895E-03   -0.20894E-03   480   0.129E-03-0.353E-06
 gam= 0.236 trial= 0.687  step= 0.901 mean= 0.687
 gam= 0.337 g(H,U,f)=  0.391E-04 0.433E-05 0.000E+00 ort(H,U,f) = 0.313E-05-0.312E-05 0.000E+00
CGA:   6    -0.240967392060E+04   -0.57993E-04   -0.57989E-04   480   0.434E-04 0.857E-08
 gam= 0.337 trial= 0.698  step= 0.850 mean= 0.698
 gam= 0.376 g(H,U,f)=  0.143E-04 0.203E-05 0.000E+00 ort(H,U,f) = 0.917E-06-0.811E-06 0.000E+00
CGA:   7    -0.240967393906E+04   -0.18454E-04   -0.18447E-04   480   0.163E-04 0.106E-06
 gam= 0.376 trial= 0.706  step= 0.781 mean= 0.706
 gam= 0.383 g(H,U,f)=  0.552E-05 0.731E-06 0.000E+00 ort(H,U,f) = 0.511E-06-0.608E-06 0.000E+00
CGA:   8    -0.240967394544E+04   -0.63858E-05   -0.63894E-05   480   0.625E-05-0.963E-07
 gam= 0.383 trial= 0.709  step= 0.828 mean= 0.709
   7 F= -.24096739E+04 E0= -.24096739E+04  d E =-.244131E-02  mag=     2.0000
 BRION: g(F)=  0.338E-02 g(S)=  0.000E+00 retain N=  3 mean eig= 1.86
 eig:   0.244  0.244  5.078
 bond charge predicted
 writing wavefunctions

 ----------------------------------------------------------------------------- 
|                                                                             |
|           W    W    AA    RRRRR   N    N  II  N    N   GGGG   !!!           |
|           W    W   A  A   R    R  NN   N  II  NN   N  G    G  !!!           |
|           W    W  A    A  R    R  N N  N  II  N N  N  G       !!!           |
|           W WW W  AAAAAA  RRRRR   N  N N  II  N  N N  G  GGG   !            |
|           WW  WW  A    A  R   R   N   NN  II  N   NN  G    G                |
|           W    W  A    A  R    R  N    N  II  N    N   GGGG   !!!           |
|                                                                             |
|      ALGO=A and IALGO=5X tend to fail with the tetrahedron method           |
|      (e.g. Bloechls method ISMEAR=-5 is not variational)                    |
|      please switch to IMSEAR=0-n, except for DOS calculations               |
|      For DOS calculations use IALGO=53 after preconverging with ISMEAR>=0   |
|          I HOPE YOU KNOW, WHAT YOU ARE  DOING                               |
|                                                                             |
 ----------------------------------------------------------------------------- 

       N       E                     dE             d eps       ncg     rms          ort
 gam= 0.000 g(H,U,f)=  0.281E-01 0.233E-02 0.000E+00 ort(H,U,f) = 0.000E+00 0.000E+00 0.000E+00
SDA:   1    -0.240966055405E+04    0.13385E-01    0.00000E+00   480   0.305E-01 0.000E+00
 gam= 0.000 trial= 0.715  step= 0.720 mean= 0.715
 gam= 0.366 g(H,U,f)=  0.837E-02 0.278E-02 0.000E+00 ort(H,U,f) = 0.180E-02-0.179E-02 0.000E+00
CGA:   2    -0.240967152023E+04   -0.10966E-01   -0.10966E-01   480   0.112E-01 0.108E-04
 gam= 0.366 trial= 0.715  step= 0.498 mean= 0.715
 gam= 0.109 g(H,U,f)=  0.107E-02 0.139E-03 0.000E+00 ort(H,U,f) = 0.352E-03-0.240E-03 0.000E+00
CGA:   3    -0.240967427169E+04   -0.27515E-02   -0.27799E-02   480   0.121E-02 0.113E-03
 gam= 0.109 trial= 0.705  step= 0.743 mean= 0.705
 gam= 0.188 g(H,U,f)=  0.211E-03 0.172E-04 0.000E+00 ort(H,U,f) = 0.938E-05-0.113E-04 0.000E+00
CGA:   4    -0.240967472621E+04   -0.45452E-03   -0.45457E-03   480   0.228E-03-0.197E-05
 gam= 0.188 trial= 0.707  step= 0.826 mean= 0.707
 gam= 0.272 g(H,U,f)=  0.577E-04 0.442E-05 0.000E+00 ort(H,U,f) = 0.529E-05-0.526E-05 0.000E+00
CGA:   5    -0.240967482026E+04   -0.94054E-04   -0.94044E-04   480   0.621E-04 0.267E-07
 gam= 0.272 trial= 0.712  step= 0.873 mean= 0.712
 gam= 0.366 g(H,U,f)=  0.195E-04 0.323E-05 0.000E+00 ort(H,U,f) = 0.203E-05-0.197E-05 0.000E+00
CGA:   6    -0.240967484740E+04   -0.27138E-04   -0.27134E-04   480   0.228E-04 0.586E-07
 gam= 0.366 trial= 0.721  step= 0.756 mean= 0.721
 gam= 0.405 g(H,U,f)=  0.743E-05 0.180E-05 0.000E+00 ort(H,U,f) = 0.975E-06-0.118E-05 0.000E+00
CGA:   7    -0.240967485601E+04   -0.86089E-05   -0.86124E-05   480   0.923E-05-0.200E-06
 gam= 0.405 trial= 0.722  step= 0.674 mean= 0.722
   8 F= -.24096749E+04 E0= -.24096749E+04  d E =-.910565E-03  mag=     2.0000
 BRION: g(F)=  0.152E-02 g(S)=  0.000E+00 retain N=  2 mean eig= 0.49
 eig:   0.219  0.755
 bond charge predicted
 writing wavefunctions

 ----------------------------------------------------------------------------- 
|                                                                             |
|           W    W    AA    RRRRR   N    N  II  N    N   GGGG   !!!           |
|           W    W   A  A   R    R  NN   N  II  NN   N  G    G  !!!           |
|           W    W  A    A  R    R  N N  N  II  N N  N  G       !!!           |
|           W WW W  AAAAAA  RRRRR   N  N N  II  N  N N  G  GGG   !            |
|           WW  WW  A    A  R   R   N   NN  II  N   NN  G    G                |
|           W    W  A    A  R    R  N    N  II  N    N   GGGG   !!!           |
|                                                                             |
|      ALGO=A and IALGO=5X tend to fail with the tetrahedron method           |
|      (e.g. Bloechls method ISMEAR=-5 is not variational)                    |
|      please switch to IMSEAR=0-n, except for DOS calculations               |
|      For DOS calculations use IALGO=53 after preconverging with ISMEAR>=0   |
|          I HOPE YOU KNOW, WHAT YOU ARE  DOING                               |
|                                                                             |
 ----------------------------------------------------------------------------- 

       N       E                     dE             d eps       ncg     rms          ort
 gam= 0.000 g(H,U,f)=  0.122E-01 0.802E-03 0.000E+00 ort(H,U,f) = 0.000E+00 0.000E+00 0.000E+00
SDA:   1    -0.240966899184E+04    0.58556E-02    0.00000E+00   480   0.130E-01 0.000E+00
 gam= 0.000 trial= 0.720  step= 0.788 mean= 0.720
 gam= 0.284 g(H,U,f)=  0.290E-02 0.788E-03 0.000E+00 ort(H,U,f) = 0.493E-03-0.499E-03 0.000E+00
CGA:   2    -0.240967410348E+04   -0.51116E-02   -0.51119E-02   480   0.369E-02-0.596E-05
 gam= 0.284 trial= 0.723  step= 0.508 mean= 0.723
 gam= 0.157 g(H,U,f)=  0.486E-03 0.930E-04 0.000E+00 ort(H,U,f) = 0.154E-03-0.132E-03 0.000E+00
CGA:   3    -0.240967503531E+04   -0.93184E-03   -0.93682E-03   480   0.579E-03 0.215E-04
 gam= 0.157 trial= 0.713  step= 0.640 mean= 0.713
 gam= 0.187 g(H,U,f)=  0.988E-04 0.969E-05 0.000E+00 ort(H,U,f) = 0.104E-04-0.103E-04 0.000E+00
CGA:   4    -0.240967522157E+04   -0.18625E-03   -0.18626E-03   480   0.109E-03 0.119E-06
 gam= 0.187 trial= 0.709  step= 0.835 mean= 0.709
 gam= 0.254 g(H,U,f)=  0.254E-04 0.213E-05 0.000E+00 ort(H,U,f) = 0.244E-05-0.258E-05 0.000E+00
CGA:   5    -0.240967526689E+04   -0.45322E-04   -0.45326E-04   480   0.276E-04-0.138E-06
 gam= 0.254 trial= 0.715  step= 0.923 mean= 0.715
 gam= 0.373 g(H,U,f)=  0.897E-05 0.131E-05 0.000E+00 ort(H,U,f) = 0.109E-05-0.981E-06 0.000E+00
CGA:   6    -0.240967527961E+04   -0.12719E-04   -0.12707E-04   480   0.103E-04 0.114E-06
 gam= 0.373 trial= 0.726  step= 0.777 mean= 0.726
 gam= 0.378 g(H,U,f)=  0.325E-05 0.636E-06 0.000E+00 ort(H,U,f) = 0.325E-06-0.407E-06 0.000E+00
CGA:   7    -0.240967528362E+04   -0.40082E-05   -0.40104E-05   480   0.389E-05-0.819E-07
 gam= 0.378 trial= 0.728  step= 0.711 mean= 0.728
   9 F= -.24096753E+04 E0= -.24096753E+04  d E =-.427607E-03  mag=     2.0000
 BRION: g(F)=  0.674E-03 g(S)=  0.000E+00 retain N=  3 mean eig= 2.47
 eig:   7.169  0.208  0.042
 bond charge predicted
 writing wavefunctions

 ----------------------------------------------------------------------------- 
|                                                                             |
|           W    W    AA    RRRRR   N    N  II  N    N   GGGG   !!!           |
|           W    W   A  A   R    R  NN   N  II  NN   N  G    G  !!!           |
|           W    W  A    A  R    R  N N  N  II  N N  N  G       !!!           |
|           W WW W  AAAAAA  RRRRR   N  N N  II  N  N N  G  GGG   !            |
|           WW  WW  A    A  R   R   N   NN  II  N   NN  G    G                |
|           W    W  A    A  R    R  N    N  II  N    N   GGGG   !!!           |
|                                                                             |
|      ALGO=A and IALGO=5X tend to fail with the tetrahedron method           |
|      (e.g. Bloechls method ISMEAR=-5 is not variational)                    |
|      please switch to IMSEAR=0-n, except for DOS calculations               |
|      For DOS calculations use IALGO=53 after preconverging with ISMEAR>=0   |
|          I HOPE YOU KNOW, WHAT YOU ARE  DOING                               |
|                                                                             |
 ----------------------------------------------------------------------------- 

       N       E                     dE             d eps       ncg     rms          ort
 gam= 0.000 g(H,U,f)=  0.145E-01 0.994E-03 0.000E+00 ort(H,U,f) = 0.000E+00 0.000E+00 0.000E+00
SDA:   1    -0.240966768043E+04    0.75992E-02    0.00000E+00   480   0.155E-01 0.000E+00
 gam= 0.000 trial= 0.727  step= 0.821 mean= 0.727
 gam= 0.319 g(H,U,f)=  0.379E-02 0.117E-02 0.000E+00 ort(H,U,f) = 0.653E-03-0.664E-03 0.000E+00
CGA:   2    -0.240967405338E+04   -0.63729E-02   -0.63734E-02   480   0.496E-02-0.104E-04
 gam= 0.319 trial= 0.732  step= 0.484 mean= 0.732
 gam= 0.132 g(H,U,f)=  0.565E-03 0.880E-04 0.000E+00 ort(H,U,f) = 0.186E-03-0.151E-03 0.000E+00
CGA:   3    -0.240967524097E+04   -0.11876E-02   -0.11984E-02   480   0.652E-03 0.355E-04
 gam= 0.132 trial= 0.720  step= 0.708 mean= 0.720
 gam= 0.233 g(H,U,f)=  0.138E-03 0.148E-04 0.000E+00 ort(H,U,f) = 0.137E-04-0.141E-04 0.000E+00
CGA:   4    -0.240967547361E+04   -0.23264E-03   -0.23264E-03   480   0.152E-03-0.351E-06
 gam= 0.233 trial= 0.719  step= 0.776 mean= 0.719
 gam= 0.254 g(H,U,f)=  0.360E-04 0.280E-05 0.000E+00 ort(H,U,f) = 0.396E-05-0.430E-05 0.000E+00
CGA:   5    -0.240967553269E+04   -0.59071E-04   -0.59079E-04   480   0.387E-04-0.344E-06
 gam= 0.254 trial= 0.722  step= 0.916 mean= 0.722
 gam= 0.338 g(H,U,f)=  0.117E-04 0.143E-05 0.000E+00 ort(H,U,f) = 0.107E-05-0.971E-06 0.000E+00
CGA:   6    -0.240967555041E+04   -0.17720E-04   -0.17709E-04   480   0.131E-04 0.102E-06
 gam= 0.338 trial= 0.732  step= 0.791 mean= 0.732
 gam= 0.329 g(H,U,f)=  0.380E-05 0.513E-06 0.000E+00 ort(H,U,f) = 0.306E-06-0.362E-06 0.000E+00
CGA:   7    -0.240967555560E+04   -0.51955E-05   -0.51973E-05   480   0.431E-05-0.562E-07
 gam= 0.329 trial= 0.735  step= 0.752 mean= 0.735
  10 F= -.24096756E+04 E0= -.24096756E+04  d E =-.271984E-03  mag=     2.0000
 BRION: g(F)=  0.666E-03 g(S)=  0.000E+00 retain N=  3 mean eig= 1.16
 eig:   2.591  0.408  0.474
 bond charge predicted
 writing wavefunctions

 ----------------------------------------------------------------------------- 
|                                                                             |
|           W    W    AA    RRRRR   N    N  II  N    N   GGGG   !!!           |
|           W    W   A  A   R    R  NN   N  II  NN   N  G    G  !!!           |
|           W    W  A    A  R    R  N N  N  II  N N  N  G       !!!           |
|           W WW W  AAAAAA  RRRRR   N  N N  II  N  N N  G  GGG   !            |
|           WW  WW  A    A  R   R   N   NN  II  N   NN  G    G                |
|           W    W  A    A  R    R  N    N  II  N    N   GGGG   !!!           |
|                                                                             |
|      ALGO=A and IALGO=5X tend to fail with the tetrahedron method           |
|      (e.g. Bloechls method ISMEAR=-5 is not variational)                    |
|      please switch to IMSEAR=0-n, except for DOS calculations               |
|      For DOS calculations use IALGO=53 after preconverging with ISMEAR>=0   |
|          I HOPE YOU KNOW, WHAT YOU ARE  DOING                               |
|                                                                             |
 ----------------------------------------------------------------------------- 

       N       E                     dE             d eps       ncg     rms          ort
 gam= 0.000 g(H,U,f)=  0.429E-02 0.222E-03 0.000E+00 ort(H,U,f) = 0.000E+00 0.000E+00 0.000E+00
SDA:   1    -0.240967341899E+04    0.21314E-02    0.00000E+00   480   0.451E-02 0.000E+00
 gam= 0.000 trial= 0.735  step= 0.810 mean= 0.735
 gam= 0.227 g(H,U,f)=  0.848E-03 0.175E-03 0.000E+00 ort(H,U,f) = 0.131E-03-0.133E-03 0.000E+00
CGA:   2    -0.240967524610E+04   -0.18271E-02   -0.18272E-02   480   0.102E-02-0.194E-05
 gam= 0.227 trial= 0.739  step= 0.542 mean= 0.739
 gam= 0.182 g(H,U,f)=  0.149E-03 0.371E-04 0.000E+00 ort(H,U,f) = 0.437E-04-0.425E-04 0.000E+00
CGA:   3    -0.240967552300E+04   -0.27691E-03   -0.27721E-03   480   0.186E-03 0.116E-05
 gam= 0.182 trial= 0.729  step= 0.549 mean= 0.729
 gam= 0.193 g(H,U,f)=  0.302E-04 0.567E-05 0.000E+00 ort(H,U,f) = 0.642E-05-0.667E-05 0.000E+00
CGA:   4    -0.240967557407E+04   -0.51073E-04   -0.51055E-04   480   0.359E-04-0.250E-06
 gam= 0.193 trial= 0.720  step= 0.703 mean= 0.720
 gam= 0.244 g(H,U,f)=  0.793E-05 0.823E-06 0.000E+00 ort(H,U,f) = 0.133E-05-0.116E-05 0.000E+00
CGA:   5    -0.240967558666E+04   -0.12587E-04   -0.12588E-04   480   0.875E-05 0.172E-06
 gam= 0.244 trial= 0.719  step= 0.887 mean= 0.719
 gam= 0.356 g(H,U,f)=  0.277E-05 0.342E-06 0.000E+00 ort(H,U,f) = 0.263E-06-0.310E-06 0.000E+00
CGA:   6    -0.240967559056E+04   -0.38978E-05   -0.39015E-05   480   0.311E-05-0.471E-07
 gam= 0.356 trial= 0.728  step= 0.857 mean= 0.728
  11 F= -.24096756E+04 E0= -.24096756E+04  d E =-.349588E-04  mag=     2.0000
 BRION: g(F)=  0.661E-03 g(S)=  0.000E+00 retain N=  4 mean eig= 1.93
 eig:   6.273  0.842  0.312  0.312
 bond charge predicted
 writing wavefunctions

 ----------------------------------------------------------------------------- 
|                                                                             |
|           W    W    AA    RRRRR   N    N  II  N    N   GGGG   !!!           |
|           W    W   A  A   R    R  NN   N  II  NN   N  G    G  !!!           |
|           W    W  A    A  R    R  N N  N  II  N N  N  G       !!!           |
|           W WW W  AAAAAA  RRRRR   N  N N  II  N  N N  G  GGG   !            |
|           WW  WW  A    A  R   R   N   NN  II  N   NN  G    G                |
|           W    W  A    A  R    R  N    N  II  N    N   GGGG   !!!           |
|                                                                             |
|      ALGO=A and IALGO=5X tend to fail with the tetrahedron method           |
|      (e.g. Bloechls method ISMEAR=-5 is not variational)                    |
|      please switch to IMSEAR=0-n, except for DOS calculations               |
|      For DOS calculations use IALGO=53 after preconverging with ISMEAR>=0   |
|          I HOPE YOU KNOW, WHAT YOU ARE  DOING                               |
|                                                                             |
 ----------------------------------------------------------------------------- 

       N       E                     dE             d eps       ncg     rms          ort
 gam= 0.000 g(H,U,f)=  0.594E-02 0.365E-03 0.000E+00 ort(H,U,f) = 0.000E+00 0.000E+00 0.000E+00
SDA:   1    -0.240967246975E+04    0.31169E-02    0.00000E+00   480   0.630E-02 0.000E+00
 gam= 0.000 trial= 0.734  step= 0.846 mean= 0.734
 gam= 0.339 g(H,U,f)=  0.158E-02 0.560E-03 0.000E+00 ort(H,U,f) = 0.274E-03-0.279E-03 0.000E+00
CGA:   2    -0.240967513478E+04   -0.26650E-02   -0.26652E-02   480   0.214E-02-0.449E-05
 gam= 0.339 trial= 0.740  step= 0.451 mean= 0.740
 gam= 0.113 g(H,U,f)=  0.217E-03 0.240E-04 0.000E+00 ort(H,U,f) = 0.636E-04-0.580E-04 0.000E+00
CGA:   3    -0.240967561285E+04   -0.47807E-03   -0.48155E-03   480   0.241E-03 0.562E-05
 gam= 0.113 trial= 0.725  step= 0.819 mean= 0.725
 gam= 0.228 g(H,U,f)=  0.486E-04 0.631E-05 0.000E+00 ort(H,U,f) = 0.342E-05-0.376E-05 0.000E+00
CGA:   4    -0.240967571178E+04   -0.98930E-04   -0.98944E-04   480   0.549E-04-0.332E-06
 gam= 0.228 trial= 0.730  step= 0.721 mean= 0.730
 gam= 0.365 g(H,U,f)=  0.169E-04 0.314E-05 0.000E+00 ort(H,U,f) = 0.340E-05-0.332E-05 0.000E+00
CGA:   5    -0.240967573153E+04   -0.19755E-04   -0.19755E-04   480   0.201E-04 0.820E-07
 gam= 0.365 trial= 0.730  step= 0.722 mean= 0.730
 gam= 0.340 g(H,U,f)=  0.573E-05 0.108E-05 0.000E+00 ort(H,U,f) = 0.831E-06-0.927E-06 0.000E+00
CGA:   6    -0.240967573878E+04   -0.72484E-05   -0.72480E-05   480   0.681E-05-0.956E-07
 gam= 0.340 trial= 0.729  step= 0.755 mean= 0.729
  12 F= -.24096757E+04 E0= -.24096757E+04  d E =-.148220E-03  mag=     2.0000
 BRION: g(F)=  0.714E-04 g(S)=  0.000E+00 retain N=  4 mean eig= 2.57
 eig:   7.638  1.663  0.481  0.481
 reached required accuracy - stopping structural energy minimisation
 writing wavefunctions
