 vasp.5.4.4.18Apr17-6-g9f103f2a35 (build Jun 14 2024 12:30:39) gamma-only        
 executed on NVIDIA22.7_CrayMPICH date 2025.02.14  08:55:55
 running on  512 total cores
 distrk:  each k-point on  512 cores,    1 groups
 distr:  one band on NCORES_PER_BAND=  16 cores,   32 groups


--------------------------------------------------------------------------------------------------------


 INCAR:
 POTCAR:   PAW_PBE Si 05Jan2001                   
 POTCAR:   PAW_PBE C 08Apr2002                    
 POTCAR:   PAW_PBE Si 05Jan2001                   
   VRHFIN =Si: s2p2                                                             
   LEXCH  = PE                                                                  
   EATOM  =   103.0669 eV,    7.5752 Ry                                         
                                                                                
   TITEL  = PAW_PBE Si 05Jan2001                                                
   LULTRA =        F    use ultrasoft PP ?                                      
   IUNSCR =        1    unscreen: 0-lin 1-nonlin 2-no                           
   RPACOR =    1.500    partial core radius                                     
   POMASS =   28.085; ZVAL   =    4.000    mass and valenz                      
   RCORE  =    1.900    outmost cutoff radius                                   
   RWIGS  =    2.480; RWIGS  =    1.312    wigner-seitz radius (au A)           
   ENMAX  =  245.345; ENMIN  =  184.009 eV                                      
   ICORE  =        2    local potential                                         
   LCOR   =        T    correct aug charges                                     
   LPAW   =        T    paw PP                                                  
   EAUG   =  322.069                                                            
   DEXC   =    -.007                                                            
   RMAX   =    2.944    core radius for proj-oper                               
   RAUG   =    1.300    factor for augmentation sphere                          
   RDEP   =    1.993    radius for radial grids                                 
   QCUT   =   -4.246; QGAM   =    8.493    optimization parameters              
                                                                                
   Description                                                                  
     l     E      TYP  RCUT    TYP  RCUT                                        
     0   .000     23  1.900                                                     
     0   .000     23  1.900                                                     
     1   .000     23  1.900                                                     
     1   .000     23  1.900                                                     
     2   .000      7  1.900                                                     
  local pseudopotential read in
  partial core-charges read in
  atomic valenz-charges read in
  non local Contribution for L=            0  read in
    real space projection operators read in
  non local Contribution for L=            0  read in
    real space projection operators read in
  non local Contribution for L=            1  read in
    real space projection operators read in
  non local Contribution for L=            1  read in
    real space projection operators read in
    PAW grid and wavefunctions read in
 
   number of l-projection  operators is LMAX  =            4
   number of lm-projection operators is LMMAX =            8
 
 POTCAR:   PAW_PBE C 08Apr2002                    
   VRHFIN =C: s2p2                                                              
   LEXCH  = PE                                                                  
   EATOM  =   147.1560 eV,   10.8157 Ry                                         
                                                                                
   TITEL  = PAW_PBE C 08Apr2002                                                 
   LULTRA =        F    use ultrasoft PP ?                                      
   IUNSCR =        0    unscreen: 0-lin 1-nonlin 2-no                           
   RPACOR =     .000    partial core radius                                     
   POMASS =   12.011; ZVAL   =    4.000    mass and valenz                      
   RCORE  =    1.500    outmost cutoff radius                                   
   RWIGS  =    1.630; RWIGS  =     .863    wigner-seitz radius (au A)           
   ENMAX  =  400.000; ENMIN  =  300.000 eV                                      
   ICORE  =        2    local potential                                         
   LCOR   =        T    correct aug charges                                     
   LPAW   =        T    paw PP                                                  
   EAUG   =  644.873                                                            
   DEXC   =     .000                                                            
   RMAX   =    2.266    core radius for proj-oper                               
   RAUG   =    1.300    factor for augmentation sphere                          
   RDEP   =    1.501    radius for radial grids                                 
   RDEPT  =    1.300    core radius for aug-charge                              
   QCUT   =   -5.516; QGAM   =   11.032    optimization parameters              
                                                                                
   Description                                                                  
     l     E      TYP  RCUT    TYP  RCUT                                        
     0   .000     23  1.200                                                     
     0   .000     23  1.200                                                     
     1   .000     23  1.500                                                     
     1  2.500     23  1.500                                                     
     2   .000      7  1.500                                                     
  local pseudopotential read in
  atomic valenz-charges read in
  non local Contribution for L=            0  read in
    real space projection operators read in
  non local Contribution for L=            0  read in
    real space projection operators read in
  non local Contribution for L=            1  read in
    real space projection operators read in
  non local Contribution for L=            1  read in
    real space projection operators read in
    PAW grid and wavefunctions read in
 
   number of l-projection  operators is LMAX  =            4
   number of lm-projection operators is LMMAX =            8
 
 Optimization of the real space projectors (new method)

 maximal supplied QI-value         = 19.84
 optimisation between [QCUT,QGAM] = [ 10.12, 20.44] = [ 28.68,116.96] Ry 
 Optimized for a Real-space Cutoff    1.38 Angstroem

   l    n(q)    QCUT    max X(q) W(low)/X(q) W(high)/X(q)  e(spline) 
   0      8    10.119     8.708    0.16E-04    0.67E-05    0.60E-08
   0      8    10.119   106.241    0.56E-04    0.11E-03    0.54E-07
   1      8    10.119     5.901    0.16E-04    0.16E-05    0.22E-07
   1      8    10.119    73.241    0.22E-03    0.17E-03    0.18E-06
 Optimization of the real space projectors (new method)

 maximal supplied QI-value         = 25.13
 optimisation between [QCUT,QGAM] = [ 10.05, 20.36] = [ 28.30,116.06] Ry 
 Optimized for a Real-space Cutoff    1.38 Angstroem

   l    n(q)    QCUT    max X(q) W(low)/X(q) W(high)/X(q)  e(spline) 
   0      8    10.053     5.582    0.33E-04    0.15E-04    0.75E-07
   0      8    10.053    69.432    0.23E-03    0.38E-03    0.25E-06
   1      8    10.053     2.780    0.76E-04    0.11E-03    0.15E-06
   1      8    10.053     4.549    0.19E-03    0.19E-03    0.27E-06
 PAW_PBE Si 05Jan2001                   :
 energy of atom  1       EATOM= -103.0669
 kinetic energy error for atom=    0.0012 (will be added to EATOM!!)
 PAW_PBE C 08Apr2002                    :
 energy of atom  2       EATOM= -147.1560
 kinetic energy error for atom=    0.0288 (will be added to EATOM!!)
 
 
 POSCAR: generated by phonopy                    
  positions in direct lattice
  velocities in cartesian coordinates
 exchange correlation table for  LEXCH =        8
   RHO(1)=    0.500       N(1)  =     2000
   RHO(2)=  100.500       N(2)  =     4000
 


--------------------------------------------------------------------------------------------------------


 ion  position               nearest neighbor table
   1  0.000  0.000  0.000-  26 1.98 189 1.98 136 1.98  75 1.98  82 1.98 117 1.98
   2  0.205  0.205  0.039- 189 1.54 139 1.54  91 1.54  40 1.56
   3  0.207  0.207  0.373-  41 1.53  92 1.54 140 1.54 190 1.55
   4  0.209  0.209  0.707-  42 1.53 191 1.54 141 1.54  93 1.54
   5  0.209  0.541  0.042-  94 1.53 192 1.54 142 1.54  43 1.54
   6  0.208  0.541  0.375-  95 1.53  44 1.53 143 1.54 193 1.54
   7  0.209  0.542  0.708-  45 1.54  96 1.54 144 1.54 194 1.54
   8  0.211  0.871  0.042- 136 1.51 195 1.52  97 1.53  37 1.55
   9  0.208  0.874  0.375- 196 1.53  38 1.54  98 1.54 137 1.54
  10  0.211  0.875  0.706- 138 1.53  39 1.53 197 1.53  99 1.54
  11  0.541  0.209  0.042- 148 1.53 198 1.54 100 1.54  49 1.54
  12  0.541  0.208  0.375- 149 1.53  50 1.53 101 1.54 199 1.54
  13  0.542  0.209  0.708-  51 1.54 150 1.54 102 1.54 200 1.54
  14  0.542  0.542  0.042- 103 1.53 151 1.53 201 1.54  52 1.54
  15  0.541  0.541  0.375- 104 1.54 152 1.54  53 1.54 202 1.54
  16  0.542  0.542  0.708- 153 1.53 105 1.53  54 1.54 203 1.54
  17  0.542  0.875  0.042- 145 1.53 204 1.54 106 1.54  46 1.54
  18  0.541  0.875  0.376-  47 1.53 146 1.53 205 1.54 107 1.54
  19  0.543  0.875  0.709- 147 1.53  48 1.53 108 1.54 206 1.54
  20  0.871  0.211  0.042-  82 1.51 207 1.52 157 1.53  31 1.55
  21  0.874  0.208  0.375- 208 1.53  32 1.54 158 1.54  83 1.54
  22  0.875  0.211  0.706-  84 1.53  33 1.53 209 1.53 159 1.54
  23  0.875  0.542  0.042-  85 1.53 210 1.54 160 1.54  34 1.54
  24  0.875  0.541  0.376-  35 1.53  86 1.53 211 1.54 161 1.54
  25  0.875  0.543  0.709-  87 1.53  36 1.53 162 1.54 212 1.54
  26  0.874  0.874  0.052-  88 1.51 154 1.51 213 1.54   1 1.98
  27  0.875  0.875  0.376-  29 1.53 214 1.54 155 1.54  89 1.54
  28  0.877  0.877  0.711-  30 1.53  90 1.54 156 1.54 215 1.55
  29  0.958  0.958  0.292- 163 1.53  27 1.53 115 1.55  73 1.55
  30  0.959  0.959  0.625- 164 1.53  28 1.53 116 1.54  74 1.54
  31  0.958  0.292  0.958- 165 1.53  78 1.53  20 1.55 111 1.55
  32  0.957  0.291  0.291-  21 1.54  76 1.54 166 1.54 109 1.56
  33  0.958  0.293  0.624-  22 1.53  77 1.53 167 1.54 110 1.54
  34  0.959  0.625  0.959- 168 1.53  81 1.53  23 1.54 114 1.54
  35  0.958  0.624  0.293-  79 1.53  24 1.53 169 1.54 112 1.54
  36  0.959  0.626  0.626-  25 1.53  80 1.53 170 1.54 113 1.54
  37  0.292  0.958  0.958- 171 1.53 126 1.53   8 1.55  57 1.55
  38  0.291  0.957  0.291-   9 1.54 124 1.54 172 1.54  55 1.56
  39  0.293  0.958  0.624-  10 1.53 125 1.53 173 1.54  56 1.54
  40  0.291  0.291  0.957-  60 1.54 120 1.54 174 1.54   2 1.56
  41  0.291  0.291  0.291-   3 1.53  58 1.53 118 1.53 175 1.54
  42  0.292  0.292  0.624-   4 1.53  59 1.53 119 1.53 176 1.54
  43  0.293  0.624  0.958-  63 1.53 123 1.53 177 1.54   5 1.54
  44  0.292  0.624  0.292-  61 1.53   6 1.53 121 1.53 178 1.54
  45  0.292  0.625  0.625-   7 1.54  62 1.54 122 1.54 179 1.54
  46  0.625  0.959  0.959- 180 1.53 135 1.53  17 1.54  66 1.54
  47  0.624  0.958  0.293- 133 1.53  18 1.53 181 1.54  64 1.54
  48  0.626  0.959  0.626-  19 1.53 134 1.53 182 1.54  65 1.54
  49  0.624  0.293  0.958- 129 1.53  69 1.53 183 1.54  11 1.54
  50  0.624  0.292  0.292- 127 1.53  12 1.53  67 1.53 184 1.54
  51  0.625  0.292  0.625-  13 1.54 128 1.54  68 1.54 185 1.54
  52  0.626  0.626  0.959-  72 1.53 132 1.53 186 1.54  14 1.54
  53  0.625  0.625  0.292-  70 1.54 130 1.54  15 1.54 187 1.54
  54  0.626  0.626  0.626-  16 1.54 131 1.54  71 1.54 188 1.54
  55  0.205  0.039  0.205- 136 1.54  91 1.54 190 1.54  38 1.56
  56  0.209  0.042  0.541-  92 1.53 137 1.54 191 1.54  39 1.54
  57  0.211  0.042  0.871- 189 1.51 138 1.52  93 1.53  37 1.55
  58  0.207  0.373  0.207-  41 1.53  94 1.54 193 1.54 139 1.55
  59  0.208  0.375  0.541-  95 1.53  42 1.53 194 1.54 140 1.54
  60  0.208  0.375  0.874- 141 1.53  40 1.54  96 1.54 192 1.54
  61  0.209  0.707  0.209-  44 1.53 142 1.54  97 1.54 196 1.54
  62  0.209  0.708  0.542-  45 1.54  98 1.54 197 1.54 143 1.54
  63  0.211  0.706  0.875- 195 1.53  43 1.53 144 1.53  99 1.54
  64  0.541  0.042  0.209- 199 1.53 145 1.54 100 1.54  47 1.54
  65  0.542  0.042  0.542- 101 1.53 200 1.53 146 1.54  48 1.54
  66  0.542  0.042  0.875- 198 1.53 147 1.54 102 1.54  46 1.54
  67  0.541  0.375  0.208- 202 1.53  50 1.53 103 1.54 148 1.54
  68  0.541  0.375  0.541- 104 1.54 203 1.54  51 1.54 149 1.54
  69  0.541  0.376  0.875-  49 1.53 201 1.53 150 1.54 105 1.54
  70  0.542  0.708  0.209-  53 1.54 205 1.54 106 1.54 151 1.54
  71  0.542  0.708  0.542- 107 1.53 206 1.53  54 1.54 152 1.54
  72  0.543  0.709  0.875- 204 1.53  52 1.53 108 1.54 153 1.54
  73  0.871  0.042  0.211-  82 1.51 154 1.52 208 1.53  29 1.55
  74  0.875  0.042  0.542-  83 1.53 155 1.54 209 1.54  30 1.54
  75  0.874  0.052  0.874-  84 1.51 207 1.51 156 1.54   1 1.98
  76  0.874  0.375  0.208- 157 1.53  32 1.54 211 1.54  85 1.54
  77  0.875  0.376  0.541-  33 1.53  86 1.53 158 1.54 212 1.54
  78  0.875  0.376  0.875-  31 1.53 159 1.54  87 1.54 210 1.54
  79  0.875  0.706  0.211-  88 1.53  35 1.53 160 1.53 214 1.54
  80  0.875  0.709  0.543-  89 1.53  36 1.53 215 1.54 161 1.54
  81  0.877  0.711  0.877-  34 1.53  90 1.54 213 1.54 162 1.55
  82  0.948  0.126  0.126-  73 1.51  20 1.51 109 1.54   1 1.98
  83  0.958  0.125  0.458-  74 1.53 110 1.54  21 1.54 163 1.54
  84  0.958  0.129  0.789-  75 1.51 111 1.52  22 1.53 164 1.55
  85  0.958  0.458  0.125-  23 1.53 112 1.54  76 1.54 165 1.54
  86  0.958  0.458  0.458-  24 1.53  77 1.53 113 1.54 166 1.54
  87  0.958  0.459  0.791-  25 1.53 114 1.54  78 1.54 167 1.54
  88  0.958  0.789  0.129-  26 1.51 115 1.52  79 1.53 168 1.55
  89  0.958  0.791  0.459-  80 1.53 116 1.54  27 1.54 169 1.54
  90  0.961  0.795  0.795- 117 1.54  81 1.54  28 1.54 170 1.56
  91  0.289  0.123  0.123- 171 1.53  55 1.54   2 1.54 118 1.55
  92  0.291  0.125  0.457-  56 1.53 172 1.53   3 1.54 119 1.54
  93  0.294  0.125  0.789-  57 1.53 173 1.53 120 1.53   4 1.54
  94  0.291  0.457  0.125-   5 1.53 174 1.53  58 1.54 121 1.54
  95  0.292  0.458  0.458-   6 1.53  59 1.53 175 1.54 122 1.54
  96  0.292  0.458  0.791- 176 1.54   7 1.54  60 1.54 123 1.54
  97  0.294  0.789  0.125-   8 1.53 177 1.53 124 1.53  61 1.54
  98  0.292  0.791  0.458- 178 1.54  62 1.54   9 1.54 125 1.54
  99  0.293  0.791  0.791- 179 1.53 126 1.54  63 1.54  10 1.54
 100  0.624  0.125  0.125- 180 1.53 127 1.54  11 1.54  64 1.54
 101  0.624  0.125  0.459- 181 1.53  65 1.53 128 1.54  12 1.54
 102  0.625  0.126  0.792- 129 1.53 182 1.54  13 1.54  66 1.54
 103  0.624  0.459  0.125- 183 1.53  14 1.53 130 1.54  67 1.54
 104  0.625  0.459  0.459-  68 1.54  15 1.54 184 1.54 131 1.54
 105  0.625  0.459  0.792-  16 1.53 185 1.53  69 1.54 132 1.54
 106  0.625  0.792  0.126- 133 1.53 186 1.54  70 1.54  17 1.54
 107  0.625  0.792  0.459-  71 1.53 187 1.53  18 1.54 134 1.54
 108  0.627  0.793  0.793- 188 1.53  72 1.54  19 1.54 135 1.55
 109  0.039  0.205  0.205-  82 1.54 139 1.54 190 1.54  32 1.56
 110  0.042  0.209  0.541- 140 1.53  83 1.54 191 1.54  33 1.54
 111  0.042  0.211  0.871- 189 1.51  84 1.52 141 1.53  31 1.55
 112  0.042  0.541  0.209- 193 1.53  85 1.54 142 1.54  35 1.54
 113  0.042  0.542  0.542- 143 1.53 194 1.53  86 1.54  36 1.54
 114  0.042  0.542  0.875- 192 1.53  87 1.54 144 1.54  34 1.54
 115  0.042  0.871  0.211- 136 1.51  88 1.52 196 1.53  29 1.55
 116  0.042  0.875  0.542- 137 1.53  89 1.54 197 1.54  30 1.54
 117  0.052  0.874  0.874- 138 1.51 195 1.51  90 1.54   1 1.98
 118  0.373  0.207  0.207-  41 1.53 148 1.54 199 1.54  91 1.55
 119  0.375  0.208  0.541- 149 1.53  42 1.53 200 1.54  92 1.54
 120  0.375  0.208  0.874-  93 1.53  40 1.54 150 1.54 198 1.54
 121  0.375  0.541  0.208- 202 1.53  44 1.53 151 1.54  94 1.54
 122  0.375  0.541  0.541- 152 1.54 203 1.54  45 1.54  95 1.54
 123  0.376  0.541  0.875-  43 1.53 201 1.53  96 1.54 153 1.54
 124  0.375  0.874  0.208-  97 1.53  38 1.54 205 1.54 145 1.54
 125  0.376  0.875  0.541-  39 1.53 146 1.53  98 1.54 206 1.54
 126  0.376  0.875  0.875-  37 1.53  99 1.54 147 1.54 204 1.54
 127  0.707  0.209  0.209-  50 1.53 100 1.54 157 1.54 208 1.54
 128  0.708  0.209  0.542-  51 1.54 158 1.54 209 1.54 101 1.54
 129  0.706  0.211  0.875- 207 1.53  49 1.53 102 1.53 159 1.54
 130  0.708  0.542  0.209-  53 1.54 211 1.54 160 1.54 103 1.54
 131  0.708  0.542  0.542- 161 1.53 212 1.53  54 1.54 104 1.54
 132  0.709  0.543  0.875- 210 1.53  52 1.53 162 1.54 105 1.54
 133  0.706  0.875  0.211- 154 1.53  47 1.53 106 1.53 214 1.54
 134  0.709  0.875  0.543- 155 1.53  48 1.53 215 1.54 107 1.54
 135  0.711  0.877  0.877-  46 1.53 156 1.54 213 1.54 108 1.55
 136  0.126  0.948  0.126- 115 1.51   8 1.51  55 1.54   1 1.98
 137  0.125  0.958  0.458- 116 1.53  56 1.54   9 1.54 163 1.54
 138  0.129  0.958  0.789- 117 1.51  57 1.52  10 1.53 164 1.55
 139  0.123  0.289  0.123- 165 1.53 109 1.54   2 1.54  58 1.55
 140  0.125  0.291  0.457- 110 1.53 166 1.53   3 1.54  59 1.54
 141  0.125  0.294  0.789- 111 1.53 167 1.53  60 1.53   4 1.54
 142  0.125  0.624  0.125- 168 1.53  61 1.54 112 1.54   5 1.54
 143  0.125  0.624  0.459- 169 1.53 113 1.53  62 1.54   6 1.54
 144  0.126  0.625  0.792-  63 1.53 170 1.54   7 1.54 114 1.54
 145  0.458  0.958  0.125-  17 1.53  64 1.54 124 1.54 171 1.54
 146  0.458  0.958  0.458-  18 1.53 125 1.53  65 1.54 172 1.54
 147  0.459  0.958  0.791-  19 1.53  66 1.54 126 1.54 173 1.54
 148  0.457  0.291  0.125-  11 1.53 174 1.53 118 1.54  67 1.54
 149  0.458  0.292  0.458-  12 1.53 119 1.53 175 1.54  68 1.54
 150  0.458  0.292  0.791- 176 1.54  13 1.54 120 1.54  69 1.54
 151  0.459  0.624  0.125- 177 1.53  14 1.53  70 1.54 121 1.54
 152  0.459  0.625  0.459-  15 1.54 122 1.54 178 1.54  71 1.54
 153  0.459  0.625  0.792-  16 1.53 179 1.53 123 1.54  72 1.54
 154  0.789  0.958  0.129-  26 1.51  73 1.52 133 1.53 180 1.55
 155  0.791  0.958  0.459- 134 1.53  74 1.54  27 1.54 181 1.54
 156  0.795  0.961  0.795-  75 1.54 135 1.54  28 1.54 182 1.56
 157  0.789  0.294  0.125-  20 1.53 183 1.53  76 1.53 127 1.54
 158  0.791  0.292  0.458- 184 1.54 128 1.54  21 1.54  77 1.54
 159  0.791  0.293  0.791- 185 1.53  78 1.54 129 1.54  22 1.54
 160  0.792  0.625  0.126-  79 1.53 186 1.54 130 1.54  23 1.54
 161  0.792  0.625  0.459- 131 1.53 187 1.53  24 1.54  80 1.54
 162  0.793  0.627  0.793- 188 1.53 132 1.54  25 1.54  81 1.55
 163  0.041  0.041  0.375-  29 1.53 190 1.53  83 1.54 137 1.54
 164  0.042  0.042  0.708-  30 1.53 191 1.53 138 1.55  84 1.55
 165  0.041  0.375  0.041-  31 1.53 139 1.53 192 1.54  85 1.54
 166  0.041  0.374  0.374- 193 1.53 140 1.53  32 1.54  86 1.54
 167  0.042  0.376  0.707- 141 1.53 194 1.53  33 1.54  87 1.54
 168  0.042  0.708  0.042-  34 1.53 142 1.53 195 1.55  88 1.55
 169  0.042  0.707  0.376- 196 1.53 143 1.53  35 1.54  89 1.54
 170  0.043  0.709  0.709- 197 1.54 144 1.54  36 1.54  90 1.56
 171  0.375  0.041  0.041-  37 1.53  91 1.53 145 1.54 198 1.54
 172  0.374  0.041  0.374- 199 1.53  92 1.53  38 1.54 146 1.54
 173  0.376  0.042  0.707-  93 1.53 200 1.53  39 1.54 147 1.54
 174  0.374  0.374  0.041-  94 1.53 148 1.53  40 1.54 201 1.54
 175  0.374  0.374  0.374- 202 1.54 149 1.54  95 1.54  41 1.54
 176  0.375  0.375  0.708-  96 1.54 150 1.54 203 1.54  42 1.54
 177  0.376  0.707  0.042-  97 1.53 151 1.53  43 1.54 204 1.54
 178  0.375  0.708  0.375- 205 1.54  98 1.54 152 1.54  44 1.54
 179  0.376  0.708  0.708-  99 1.53 206 1.53 153 1.53  45 1.54
 180  0.708  0.042  0.042-  46 1.53 100 1.53 154 1.55 207 1.55
 181  0.707  0.042  0.376- 208 1.53 101 1.53  47 1.54 155 1.54
 182  0.709  0.043  0.709- 209 1.54 102 1.54  48 1.54 156 1.56
 183  0.707  0.376  0.042- 157 1.53 103 1.53  49 1.54 210 1.54
 184  0.708  0.375  0.375- 211 1.54 158 1.54 104 1.54  50 1.54
 185  0.708  0.376  0.708- 159 1.53 212 1.53 105 1.53  51 1.54
 186  0.709  0.709  0.043- 106 1.54 160 1.54  52 1.54 213 1.56
 187  0.708  0.708  0.376- 214 1.53 161 1.53 107 1.53  53 1.54
 188  0.709  0.709  0.709- 215 1.53 162 1.53 108 1.53  54 1.54
 189  0.126  0.126  0.948-  57 1.51 111 1.51   2 1.54   1 1.98
 190  0.123  0.123  0.289- 163 1.53 109 1.54  55 1.54   3 1.55
 191  0.125  0.125  0.624- 164 1.53   4 1.54 110 1.54  56 1.54
 192  0.125  0.458  0.958- 114 1.53   5 1.54  60 1.54 165 1.54
 193  0.125  0.457  0.291- 112 1.53 166 1.53  58 1.54   6 1.54
 194  0.125  0.459  0.624- 167 1.53 113 1.53   7 1.54  59 1.54
 195  0.129  0.789  0.958- 117 1.51   8 1.52  63 1.53 168 1.55
 196  0.125  0.789  0.294- 115 1.53 169 1.53   9 1.53  61 1.54
 197  0.126  0.792  0.625-  10 1.53 170 1.54  62 1.54 116 1.54
 198  0.458  0.125  0.958-  66 1.53  11 1.54 120 1.54 171 1.54
 199  0.457  0.125  0.291-  64 1.53 172 1.53 118 1.54  12 1.54
 200  0.459  0.125  0.624- 173 1.53  65 1.53  13 1.54 119 1.54
 201  0.458  0.458  0.958-  69 1.53 123 1.53  14 1.54 174 1.54
 202  0.458  0.458  0.292-  67 1.53 121 1.53 175 1.54  15 1.54
 203  0.459  0.459  0.625-  68 1.54 122 1.54 176 1.54  16 1.54
 204  0.459  0.791  0.958-  72 1.53  17 1.54 126 1.54 177 1.54
 205  0.458  0.791  0.292- 178 1.54  70 1.54 124 1.54  18 1.54
 206  0.459  0.792  0.625-  71 1.53 179 1.53 125 1.54  19 1.54
 207  0.789  0.129  0.958-  75 1.51  20 1.52 129 1.53 180 1.55
 208  0.789  0.125  0.294-  73 1.53 181 1.53  21 1.53 127 1.54
 209  0.792  0.126  0.625-  22 1.53 182 1.54 128 1.54  74 1.54
 210  0.791  0.459  0.958- 132 1.53  23 1.54  78 1.54 183 1.54
 211  0.791  0.458  0.292- 184 1.54 130 1.54  76 1.54  24 1.54
 212  0.792  0.459  0.625- 131 1.53 185 1.53  77 1.54  25 1.54
 213  0.795  0.795  0.961-  26 1.54  81 1.54 135 1.54 186 1.56
 214  0.791  0.791  0.293- 187 1.53  27 1.54 133 1.54  79 1.54
 215  0.793  0.793  0.627- 188 1.53 134 1.54  80 1.54  28 1.55
 

IMPORTANT INFORMATION: All symmetrisations will be switched off!
NOSYMM: (Re-)initialisation of all symmetry stuff for point group C_1.

 
 
 KPOINTS: pymatgen v1.1 with grid density = 2210 /

Automatic generation of k-mesh.
Space group operators:
 irot       det(A)        alpha          n_x          n_y          n_z        tau_x        tau_y        tau_z
    1     1.000000     0.000000     1.000000     0.000000     0.000000     0.000000     0.000000     0.000000
 
 Subroutine IBZKPT returns following result:
 ===========================================
 
 Found      1 irreducible k-points:
 
 Following reciprocal coordinates:
            Coordinates               Weight
  0.000000  0.000000  0.000000      1.000000
 
 Following cartesian coordinates:
            Coordinates               Weight
  0.000000  0.000000  0.000000      1.000000
 
 
 Subroutine IBZKPT_HF returns following result:
 ==============================================
 
 Found      1 k-points in 1st BZ
 the following      1 k-points will be used (e.g. in the exchange kernel)
 Following reciprocal coordinates:   # in IRBZ
  0.000000  0.000000  0.000000    1.00000000   1 t-inv F


--------------------------------------------------------------------------------------------------------




 Dimension of arrays:
   k-points           NKPTS =      1   k-points in BZ     NKDIM =      1   number of bands    NBANDS=    608
   number of dos      NEDOS =    301   number of ions     NIONS =    215
   non local maximal  LDIM  =      4   non local SUM 2l+1 LMDIM =      8
   total plane-waves  NPLWV = 343000
   max r-space proj   IRMAX =   3182   max aug-charges    IRDMAX=   9703
   dimension x,y,z NGX =    70 NGY =   70 NGZ =   70
   dimension x,y,z NGXF=   140 NGYF=  140 NGZF=  140
   support grid    NGXF=   140 NGYF=  140 NGZF=  140
   ions per type =               1 214
   NGX,Y,Z   is equivalent  to a cutoff of  10.93, 10.93, 10.93 a.u.
   NGXF,Y,Z  is equivalent  to a cutoff of  21.86, 21.86, 21.86 a.u.

 SYSTEM =  unknown system                          
 POSCAR =  generated by phonopy                    

 Startparameter for this run:
   NWRITE =      2    write-flag & timer
   PREC   = accura    normal or accurate (medium, high low for compatibility)
   ISTART =      1    job   : 0-new  1-cont  2-samecut
   ICHARG =      2    charge: 1-file 2-atom 10-const
   ISPIN  =      2    spin polarized calculation?
   LNONCOLLINEAR =      F non collinear calculations
   LSORBIT =      F    spin-orbit coupling
   INIWAV =      1    electr: 0-lowe 1-rand  2-diag
   LASPH  =      F    aspherical Exc in radial PAW
   METAGGA=      F    non-selfconsistent MetaGGA calc.

 Electronic Relaxation 1
   ENCUT  =  400.0 eV  29.40 Ry    5.42 a.u.  17.36 17.36 17.36*2*pi/ulx,y,z
   ENINI  =  400.0     initial cutoff
   ENAUG  =  644.9 eV  augmentation charge cutoff
   NELM   =    100;   NELMIN=  2; NELMDL=  0     # of ELM steps 
   EDIFF  = 0.1E-04   stopping-criterion for ELM
   LREAL  =      T    real-space projection
   NLSPLINE    = F    spline interpolate recip. space projectors
   LCOMPAT=      F    compatible to vasp.4.4
   GGA_COMPAT  = T    GGA compatible to vasp.4.4-vasp.4.6
   LMAXPAW     = -100 max onsite density
   LMAXMIX     =    2 max onsite mixed and CHGCAR
   VOSKOWN=      0    Vosko Wilk Nusair interpolation
   ROPT   =   -0.00025  -0.00025
 Ionic relaxation
   EDIFFG = -.1E-01   stopping-criterion for IOM
   NSW    =     99    number of steps for IOM
   NBLOCK =      1;   KBLOCK =     99    inner block; outer block 
   IBRION =      2    ionic relax: 0-MD 1-quasi-New 2-CG
   NFREE  =      1    steps in history (QN), initial steepest desc. (CG)
   ISIF   =      2    stress and relaxation
   IWAVPR =     11    prediction:  0-non 1-charg 2-wave 3-comb
   ISYM   =      0    0-nonsym 1-usesym 2-fastsym
   LCORR  =      T    Harris-Foulkes like correction to forces

   POTIM  = 0.5000    time-step for ionic-motion
   TEIN   =    0.0    initial temperature
   TEBEG  =    0.0;   TEEND  =   0.0 temperature during run
   SMASS  =  -3.00    Nose mass-parameter (am)
   estimated Nose-frequenzy (Omega)   =  0.10E-29 period in steps =****** mass=  -0.259E-26a.u.
   SCALEE = 1.0000    scale energy and forces
   NPACO  =    256;   APACO  = 16.0  distance and # of slots for P.C.
   PSTRESS=    0.0 pullay stress

  Mass of Ions in am
   POMASS =  28.09 12.01
  Ionic Valenz
   ZVAL   =   4.00  4.00
  Atomic Wigner-Seitz radii
   RWIGS  =  -1.00 -1.00
  virtual crystal weights 
   VCA    =   1.00  1.00
   NELECT =     860.0000    total number of electrons
   NUPDOWN=       2.0000    fix difference up-down

 DOS related values:
   EMIN   =  10.00;   EMAX   =-10.00  energy-range for DOS
   EFERMI =   0.00
   ISMEAR =    -2;   SIGMA  =   0.05  broadening in eV -4-tet -1-fermi 0-gaus

 Electronic relaxation 2 (details)
   IALGO  =     58    algorithm
   LDIAG  =      F    sub-space diagonalisation (order eigenvalues)
   LSUBROT=      F    optimize rotation matrix (better conditioning)
   TURBO    =      0    0=normal 1=particle mesh
   IRESTART =      0    0=no restart 2=restart with 2 vectors
   NREBOOT  =      0    no. of reboots
   NMIN     =      0    reboot dimension
   EREF     =   0.00    reference energy to select bands
   IMIX   =      4    mixing-type and parameters
     AMIX     =   0.40;   BMIX     =  1.00
     AMIX_MAG =   1.60;   BMIX_MAG =  1.00
     AMIN     =   0.10
     WC   =   100.;   INIMIX=   1;  MIXPRE=   1;  MAXMIX= -45

 Intra band minimization:
   WEIMIN = 0.0010     energy-eigenvalue tresh-hold
   EBREAK =  0.41E-08  absolut break condition
   DEPER  =   0.30     relativ break condition  

   TIME   =   0.40     timestep for ELM

  volume/ion in A,a.u.               =       5.61        37.87
  Fermi-wavevector in a.u.,A,eV,Ry     =   1.462352  2.763445 29.095711  2.138474
  Thomas-Fermi vector in A             =   2.578576
 
 Write flags
   LWAVE        =      T    write WAVECAR
   LDOWNSAMPLE  =      F    k-point downsampling of WAVECAR
   LCHARG       =      F    write CHGCAR
   LVTOT        =      F    write LOCPOT, total local potential
   LVHAR        =      F    write LOCPOT, Hartree potential only
   LELF         =      F    write electronic localiz. function (ELF)
   LORBIT       =     11    0 simple, 1 ext, 2 COOP (PROOUT), +10 PAW based schemes


 Dipole corrections
   LMONO  =      F    monopole corrections only (constant potential shift)
   LDIPOL =      F    correct potential (dipole corrections)
   IDIPOL =      0    1-x, 2-y, 3-z, 4-all directions 
   EPSILON=  1.0000000 bulk dielectric constant

 Exchange correlation treatment:
   GGA     =    --    GGA type
   LEXCH   =     8    internal setting for exchange type
   VOSKOWN=      0    Vosko Wilk Nusair interpolation
   EXXOEP  =     0    0=HF, 1=EXX-LHF (local Hartree Fock) 2=EXX OEP
   LHFCALC =     T    Hartree Fock is set to
   LSYMGRAD=     F    symmetrize gradient (conserves proper symmetry)
   PRECFOCK=fast      Normal, Fast or Accurate (Low or Medium for compatibility)
   LRHFCALC=     F    long range Hartree Fock
   LRSCOR  =     F    long range correlation only (use DFT for short range part)
   LTHOMAS =     F    Thomas Fermi screening in HF
   LMODELHF=     F    short range full HF, long range fraction AEXX
   ENCUT4O =  -1.0   cutoff for four orbital integrals eV
   LMAXFOCK=     4    L truncation for augmentation on plane wave grid
   LMAXFOCKAE=  -1    L truncation for all-electron charge restoration on plane wave grid
   NMAXFOCKAE=   1    number of basis functions for all-electron charge restoration
   LFOCKAEDFT=     F  apply the AE augmentation even for DFT
   NKREDX  =     1    reduce k-point grid by
   NKREDY  =     1    reduce k-point grid by
   NKREDZ  =     1    reduce k-point grid by
   SHIFTRED=     F    shift reduced grid of Gamma
   HFKIDENT=     F    idential grid for each k-point
   ODDONLY =     F    use only odd q-grid points
   EVENONLY=     F    use only even q-grid points
   HFALPHA =   -1.0000 decay constant for conv. correction
   MCALPHA =    0.0000 extent of test-charge in conv. correction in multipole expansion
   AEXX    =    0.2500 exact exchange contribution
   HFSCREEN=    0.2000 screening length (either q_TF or 0.3 A-1)
   HFSCREENC=   0.2000 screening length for correlation (either q_TF or 0.3 A-1)
   HFRCUT  =    0.0000 spherical cutoff for potential kernel
   ALDAX   =    0.7500 LDA exchange part
   AGGAX   =    0.7500 GGA exchange part
   ALDAC   =    1.0000 LDA correlation
   AGGAC   =    1.0000 GGA correlation
   ENCUTFOCK=  -1.0 apply spherical cutoff to Coloumb kernel
   NBANDSGWLOW=     1    first orbital included in HF term
   NBLOCK_FOCK=    64    blocking factor in FOCK_ACC
 Linear response parameters
   LEPSILON=     F    determine dielectric tensor
   LRPA    =     F    only Hartree local field effects (RPA)
   LNABLA  =     F    use nabla operator in PAW spheres
   LVEL    =     F    velocity operator in full k-point grid
   LINTERFAST=   F  fast interpolation
   KINTER  =     0    interpolate to denser k-point grid
   CSHIFT  =0.1000    complex shift for real part using Kramers Kronig
   OMEGAMAX=  -1.0    maximum frequency
   DEG_THRESHOLD= 0.2000000E-02 threshold for treating states as degnerate
   RTIME   =   -0.100 relaxation time in fs
  (WPLASMAI=    0.000 imaginary part of plasma frequency in eV, 0.658/RTIME)
   DFIELD  = 0.0000000 0.0000000 0.0000000 field for delta impulse in time
 
 Orbital magnetization related:
   ORBITALMAG=     F  switch on orbital magnetization
   LCHIMAG   =     F  perturbation theory with respect to B field
   DQ        =  0.001000  dq finite difference perturbation B field
   LLRAUG    =     F  two centre corrections for induced B field



--------------------------------------------------------------------------------------------------------


 conjugate gradient relaxation of ions
 charge density and potential will be updated during run
 spin polarized calculation
 Conjugate gradient for all bands (Kresse, et al. variant)
 preconditioned conjugated gradient                                        
 perform Loewdin sub-space diagonalisation
    ordering is kept fixed
    before iterative eigenvector-optimisation
 modified Broyden-mixing scheme, WC =      100.0
 initial mixing is a Kerker type mixing with AMIX =  0.4000 and BMIX =      1.0000
 Hartree-type preconditioning will be used
 using additional bands           178
 real space projection scheme for non local part
 use partial core corrections
 no Harris-corrections to forces 
 use gradient corrections 
 use of overlap-Matrix (Vanderbilt PP)
 partial occupancies read from INCAR or WAVECAR (fixed during run)


--------------------------------------------------------------------------------------------------------


  energy-cutoff  :      400.00
  volume of cell :     1206.61
      direct lattice vectors                 reciprocal lattice vectors
     7.527901926  4.346236203  6.146506184     0.066419569  0.038347356  0.054231351
    -7.527901926  4.346236203  6.146506184    -0.066419569  0.038347356  0.054231351
    -0.000000000 -8.692472407  6.146506184     0.000000000 -0.076694712  0.054231351

  length of vectors
    10.646061000 10.646061000 10.646061000     0.093931455  0.093931455  0.093931455


 
 old parameters found on file WAVECAR:
  energy-cutoff  :      400.00
  volume of cell :     1206.61
      direct lattice vectors                 reciprocal lattice vectors
     7.527901926  4.346236203  6.146506184     0.066419569  0.038347356  0.054231351
    -7.527901926  4.346236203  6.146506184    -0.066419569  0.038347356  0.054231351
    -0.000000000 -8.692472407  6.146506184     0.000000000 -0.076694712  0.054231351

  length of vectors

 
 k-points in units of 2pi/SCALE and weight: pymatgen v1.1 with grid density = 2210 /
   0.00000000  0.00000000  0.00000000       1.000
 
 k-points in reciprocal lattice and weights: pymatgen v1.1 with grid density = 2210 /
   0.00000000  0.00000000  0.00000000       1.000
 
 position of ions in fractional coordinates (direct lattice) 
   0.00000000  0.00000000  0.00000000
   0.20523706  0.20523706  0.03907120
   0.20719807  0.20719807  0.37323555
   0.20880015  0.20880015  0.70709406
   0.20851414  0.54088306  0.04153516
   0.20821001  0.54072312  0.37471960
   0.20878162  0.54151212  0.70783595
   0.21092373  0.87111898  0.04180582
   0.20836162  0.87414202  0.37523652
   0.21063151  0.87457206  0.70624268
   0.54088306  0.20851414  0.04153516
   0.54072312  0.20821001  0.37471960
   0.54151212  0.20878162  0.70783595
   0.54172676  0.54172676  0.04185156
   0.54143265  0.54143265  0.37513137
   0.54213628  0.54213628  0.70840308
   0.54187583  0.87504318  0.04197505
   0.54133188  0.87475338  0.37581574
   0.54282232  0.87537489  0.70891527
   0.87111898  0.21092373  0.04180582
   0.87414202  0.20836162  0.37523652
   0.87457206  0.21063151  0.70624268
   0.87504318  0.54187583  0.04197505
   0.87475338  0.54133188  0.37581574
   0.87537489  0.54282232  0.70891527
   0.87382210  0.87382210  0.05213185
   0.87468421  0.87468421  0.37585623
   0.87692300  0.87692300  0.71062135
   0.95768266  0.95768266  0.29230318
   0.95898502  0.95898502  0.62544500
   0.95768266  0.29230318  0.95768266
   0.95715206  0.29094355  0.29094355
   0.95828690  0.29296320  0.62374209
   0.95898502  0.62544500  0.95898502
   0.95828690  0.62374209  0.29296320
   0.95883322  0.62575745  0.62575745
   0.29230318  0.95768266  0.95768266
   0.29094355  0.95715206  0.29094355
   0.29296320  0.95828690  0.62374209
   0.29094355  0.29094355  0.95715206
   0.29060861  0.29060861  0.29060861
   0.29183415  0.29183415  0.62393941
   0.29296320  0.62374209  0.95828690
   0.29183415  0.62393941  0.29183415
   0.29221657  0.62490576  0.62490576
   0.62544500  0.95898502  0.95898502
   0.62374209  0.95828690  0.29296320
   0.62575745  0.95883322  0.62575745
   0.62374209  0.29296320  0.95828690
   0.62393941  0.29183415  0.29183415
   0.62490576  0.29221657  0.62490576
   0.62575745  0.62575745  0.95883322
   0.62490576  0.62490576  0.29221657
   0.62563682  0.62563682  0.62563682
   0.20523706  0.03907120  0.20523706
   0.20851414  0.04153516  0.54088306
   0.21092373  0.04180582  0.87111898
   0.20719807  0.37323555  0.20719807
   0.20821001  0.37471960  0.54072312
   0.20836162  0.37523652  0.87414202
   0.20880015  0.70709406  0.20880015
   0.20878162  0.70783595  0.54151212
   0.21063151  0.70624268  0.87457206
   0.54088306  0.04153516  0.20851414
   0.54172676  0.04185156  0.54172676
   0.54187583  0.04197505  0.87504318
   0.54072312  0.37471960  0.20821001
   0.54143265  0.37513137  0.54143265
   0.54133188  0.37581574  0.87475338
   0.54151212  0.70783595  0.20878162
   0.54213628  0.70840308  0.54213628
   0.54282232  0.70891527  0.87537489
   0.87111898  0.04180582  0.21092373
   0.87504318  0.04197505  0.54187583
   0.87382210  0.05213185  0.87382210
   0.87414202  0.37523652  0.20836162
   0.87475338  0.37581574  0.54133188
   0.87468421  0.37585623  0.87468421
   0.87457206  0.70624268  0.21063151
   0.87537489  0.70891527  0.54282232
   0.87692300  0.71062135  0.87692300
   0.94786815  0.12617790  0.12617790
   0.95802495  0.12495682  0.45812417
   0.95819418  0.12888102  0.78907627
   0.95802495  0.45812417  0.12495682
   0.95814844  0.45827324  0.45827324
   0.95846484  0.45911694  0.79148586
   0.95819418  0.78907627  0.12888102
   0.95846484  0.79148586  0.45911694
   0.96092880  0.79476294  0.79476294
   0.28937865  0.12307700  0.12307700
   0.29108473  0.12462511  0.45717768
   0.29375732  0.12542794  0.78936849
   0.29108473  0.45717768  0.12462511
   0.29159692  0.45786372  0.45786372
   0.29216405  0.45848788  0.79121838
   0.29375732  0.78936849  0.12542794
   0.29216405  0.79121838  0.45848788
   0.29290594  0.79119985  0.79119985
   0.62414377  0.12531579  0.12531579
   0.62418426  0.12524662  0.45866812
   0.62476348  0.12585798  0.79163838
   0.62418426  0.45866812  0.12524662
   0.62486863  0.45856735  0.45856735
   0.62528040  0.45927688  0.79178999
   0.62476348  0.79163838  0.12585798
   0.62528040  0.79178999  0.45927688
   0.62676445  0.79280193  0.79280193
   0.03907120  0.20523706  0.20523706
   0.04153516  0.20851414  0.54088306
   0.04180582  0.21092373  0.87111898
   0.04153516  0.54088306  0.20851414
   0.04185156  0.54172676  0.54172676
   0.04197505  0.54187583  0.87504318
   0.04180582  0.87111898  0.21092373
   0.04197505  0.87504318  0.54187583
   0.05213185  0.87382210  0.87382210
   0.37323555  0.20719807  0.20719807
   0.37471960  0.20821001  0.54072312
   0.37523652  0.20836162  0.87414202
   0.37471960  0.54072312  0.20821001
   0.37513137  0.54143265  0.54143265
   0.37581574  0.54133188  0.87475338
   0.37523652  0.87414202  0.20836162
   0.37581574  0.87475338  0.54133188
   0.37585623  0.87468421  0.87468421
   0.70709406  0.20880015  0.20880015
   0.70783595  0.20878162  0.54151212
   0.70624268  0.21063151  0.87457206
   0.70783595  0.54151212  0.20878162
   0.70840308  0.54213628  0.54213628
   0.70891527  0.54282232  0.87537489
   0.70624268  0.87457206  0.21063151
   0.70891527  0.87537489  0.54282232
   0.71062135  0.87692300  0.87692300
   0.12617790  0.94786815  0.12617790
   0.12495682  0.95802495  0.45812417
   0.12888102  0.95819418  0.78907627
   0.12307700  0.28937865  0.12307700
   0.12462511  0.29108473  0.45717768
   0.12542794  0.29375732  0.78936849
   0.12531579  0.62414377  0.12531579
   0.12524662  0.62418426  0.45866812
   0.12585798  0.62476348  0.79163838
   0.45812417  0.95802495  0.12495682
   0.45827324  0.95814844  0.45827324
   0.45911694  0.95846484  0.79148586
   0.45717768  0.29108473  0.12462511
   0.45786372  0.29159692  0.45786372
   0.45848788  0.29216405  0.79121838
   0.45866812  0.62418426  0.12524662
   0.45856735  0.62486863  0.45856735
   0.45927688  0.62528040  0.79178999
   0.78907627  0.95819418  0.12888102
   0.79148586  0.95846484  0.45911694
   0.79476294  0.96092880  0.79476294
   0.78936849  0.29375732  0.12542794
   0.79121838  0.29216405  0.45848788
   0.79119985  0.29290594  0.79119985
   0.79163838  0.62476348  0.12585798
   0.79178999  0.62528040  0.45927688
   0.79280193  0.62676445  0.79280193
   0.04101498  0.04101498  0.37455500
   0.04231734  0.04231734  0.70769682
   0.04101498  0.37455500  0.04101498
   0.04116678  0.37424255  0.37424255
   0.04171310  0.37625791  0.70703680
   0.04231734  0.70769682  0.04231734
   0.04171310  0.70703680  0.37625791
   0.04284794  0.70905645  0.70905645
   0.37455500  0.04101498  0.04101498
   0.37424255  0.04116678  0.37424255
   0.37625791  0.04171310  0.70703680
   0.37424255  0.37424255  0.04116678
   0.37436318  0.37436318  0.37436318
   0.37509424  0.37509424  0.70778343
   0.37625791  0.70703680  0.04171310
   0.37509424  0.70778343  0.37509424
   0.37606059  0.70816585  0.70816585
   0.70769682  0.04231734  0.04231734
   0.70703680  0.04171310  0.37625791
   0.70905645  0.04284794  0.70905645
   0.70703680  0.37625791  0.04171310
   0.70778343  0.37509424  0.37509424
   0.70816585  0.37606059  0.70816585
   0.70905645  0.70905645  0.04284794
   0.70816585  0.70816585  0.37606059
   0.70939139  0.70939139  0.70939139
   0.12617790  0.12617790  0.94786815
   0.12307700  0.12307700  0.28937865
   0.12531579  0.12531579  0.62414377
   0.12495682  0.45812417  0.95802495
   0.12462511  0.45717768  0.29108473
   0.12524662  0.45866812  0.62418426
   0.12888102  0.78907627  0.95819418
   0.12542794  0.78936849  0.29375732
   0.12585798  0.79163838  0.62476348
   0.45812417  0.12495682  0.95802495
   0.45717768  0.12462511  0.29108473
   0.45866812  0.12524662  0.62418426
   0.45827324  0.45827324  0.95814844
   0.45786372  0.45786372  0.29159692
   0.45856735  0.45856735  0.62486863
   0.45911694  0.79148586  0.95846484
   0.45848788  0.79121838  0.29216405
   0.45927688  0.79178999  0.62528040
   0.78907627  0.12888102  0.95819418
   0.78936849  0.12542794  0.29375732
   0.79163838  0.12585798  0.62476348
   0.79148586  0.45911694  0.95846484
   0.79121838  0.45848788  0.29216405
   0.79178999  0.45927688  0.62528040
   0.79476294  0.79476294  0.96092880
   0.79119985  0.79119985  0.29290594
   0.79280193  0.79280193  0.62676445
 
 position of ions in cartesian coordinates  (Angst):
   0.00000000  0.00000000  0.00000000
   0.00000000  1.44439215  2.76313303
  -0.00000000 -1.44327621  4.84118298
  -0.00000000 -4.33140607  6.91294077
  -2.50204060  2.89601400  4.86147065
  -2.50312609 -0.00219952  6.90653848
  -2.50476261 -2.89189064  8.96240311
  -4.96988509  4.33941725  6.90774189
  -5.01192955  1.44308336  8.96000892
  -4.99807939 -1.42244392 11.01113545
   2.50204060  2.89601400  4.86147065
   2.50312609 -0.00219952  6.90653848
   2.50476261 -2.89189064  8.96240311
   0.00000000  4.34515144  6.91669463
   0.00000000  1.44556927  8.96158555
  -0.00000000 -1.44526957 11.01869193
  -2.50805112  5.79339774  8.96710142
  -2.50996436  2.88787307 11.01393057
  -2.50342306  0.00159361 13.07431003
   4.96988509  4.33941725  6.90774189
   5.01192955  1.44308336  8.96000892
   4.99807939 -1.42244392 11.01113545
   2.50805112  5.79339774  8.96710142
   2.50996436  2.88787307 11.01393057
   2.50342306  0.00159361 13.07431003
   0.00000000  7.14251989 11.06233466
   0.00000000  4.33604845 13.06270648
   0.00000000  1.44557245 15.14786381
   0.00000000  5.78379280 13.56944815
   0.00000000  2.89928745 15.63311623
   5.00891149 -2.89189640 13.56944815
   5.01515238  2.89549957  9.45971368
   5.00849154  0.01636755 11.52465111
   2.51085658 -1.44964372 15.63311623
   2.51842049  4.32929713 11.52465111
   2.50736174  1.44762598 13.58591834
  -5.00891149 -2.89189640 13.56944815
  -5.01515238  2.89549957  9.45971368
  -5.00849154  0.01636755 11.52465111
  -0.00000000 -5.79099915  9.45971368
  -0.00000000 -0.00000000  5.35868286
  -0.00000000 -2.88681581  7.42256823
  -2.49007106 -4.34566469 11.52465111
  -2.50005583  1.44340791  7.42256823
  -2.50445159 -1.44594580  9.47808512
  -2.51085658 -1.44964372 15.63311623
  -2.51842049  4.32929713 11.52465111
  -2.50736174  1.44762598 13.58591834
   2.49007106 -4.34566469 11.52465111
   2.50005583  1.44340791  7.42256823
   2.50445159 -1.44594580  9.47808512
  -0.00000000 -2.89525196 13.58591834
   0.00000000  2.89189161  9.47808512
   0.00000000 -0.00000000 11.53644182
   1.25088030 -0.72219608  2.76313303
   1.25700139 -3.61483772  4.86147065
   1.27310303 -6.47375536  6.90774189
  -1.24991386  0.72163810  4.84118298
  -1.25346789 -2.16667102  6.90653848
  -1.25621792 -5.06200000  8.96000892
  -3.75110769  2.16570304  6.91294077
  -3.75683206 -0.72324273  8.96240311
  -3.73091226 -3.61724176 11.01113545
   3.75904200  0.71882372  4.86147065
   3.76301153 -2.17257572  6.91669463
   3.76320406 -5.06873485  8.96710142
   1.24965820  2.16887054  6.90653848
   1.25189971 -0.72278464  8.96158555
   1.24598926 -3.61762943 11.01393057
  -1.25206945  3.61513337  8.96240311
  -1.25164016  0.72263479 11.01869193
  -1.25033142 -2.16882477 13.07431003
   6.24298811  2.13433812  6.90774189
   6.27125518 -0.72466289  8.96710142
   6.18560368 -3.57125995 11.06233466
   3.75571163  3.61891663  8.96000892
   3.75595362  0.72975636 11.01393057
   3.75512811 -2.16802422 13.06270648
   1.26716712  5.03968568 11.01113545
   1.25309164  2.16723116 13.07431003
   1.25190247 -0.72278623 15.14786381
   6.18560368  3.57125995  7.37718389
   6.27125518  0.72466289  9.47241713
   6.24298811 -2.13433812 11.53177666
   3.76320406  5.06873485  9.47241713
   3.76301153  2.17257572 11.52282392
   3.75904200 -0.71882372 13.57804790
   1.27310303  6.47375536 11.53177666
   1.25700139  3.61483772 13.57804790
   1.25088030  0.72219608 15.67638552
   1.25190247  0.72278623  3.29165474
   1.25309164 -2.16723116  5.36520852
   1.26716712 -5.03968568  7.42838310
  -1.25033142  2.16882477  5.36520852
  -1.25164016 -0.72263479  7.42082662
  -1.25206945 -3.61513337  9.47711544
  -3.73091226  3.61724176  7.42838310
  -3.75683206  0.72324273  9.47711544
  -3.75110769 -2.16570304 11.52657779
   3.75512811  2.16802422  5.37681207
   3.75595362 -0.72975636  7.42558798
   3.75571163 -3.61891663  9.47950963
   1.24598926  3.61762943  7.42558798
   1.25189971  0.72278464  9.47793301
   1.24965820 -2.16887054 11.53298007
  -1.25621792  5.06200000  9.47950963
  -1.25346789  2.16667102 11.53298007
  -1.24991386 -0.72163810 13.59833557
  -1.25088030 -0.72219608  2.76313303
  -1.25700139 -3.61483772  4.86147065
  -1.27310303 -6.47375536  6.90774189
  -3.75904200  0.71882372  4.86147065
  -3.76301153 -2.17257572  6.91669463
  -3.76320406 -5.06873485  8.96710142
  -6.24298811  2.13433812  6.90774189
  -6.27125518 -0.72466289  8.96710142
  -6.18560368 -3.57125995 11.06233466
   1.24991386  0.72163810  4.84118298
   1.25346789 -2.16667102  6.90653848
   1.25621792 -5.06200000  8.96000892
  -1.24965820  2.16887054  6.90653848
  -1.25189971 -0.72278464  8.96158555
  -1.24598926 -3.61762943 11.01393057
  -3.75571163  3.61891663  8.96000892
  -3.75595362  0.72975636 11.01393057
  -3.75512811 -2.16802422 13.06270648
   3.75110769  2.16570304  6.91294077
   3.75683206 -0.72324273  8.96240311
   3.73091226 -3.61724176 11.01113545
   1.25206945  3.61513337  8.96240311
   1.25164016  0.72263479 11.01869193
   1.25033142 -2.16882477 13.07431003
  -1.26716712  5.03968568 11.01113545
  -1.25309164  2.16723116 13.07431003
  -1.25190247 -0.72278623 15.14786381
  -6.18560368  3.57125995  7.37718389
  -6.27125518  0.72466289  9.47241713
  -6.24298811 -2.13433812 11.53177666
  -1.25190247  0.72278623  3.29165474
  -1.25309164 -2.16723116  5.36520852
  -1.26716712 -5.03968568  7.42838310
  -3.75512811  2.16802422  5.37681207
  -3.75595362 -0.72975636  7.42558798
  -3.75571163 -3.61891663  9.47950963
  -3.76320406  5.06873485  9.47241713
  -3.76301153  2.17257572 11.52282392
  -3.75904200 -0.71882372 13.57804790
   1.25033142  2.16882477  5.36520852
   1.25164016 -0.72263479  7.42082662
   1.25206945 -3.61513337  9.47711544
  -1.24598926  3.61762943  7.42558798
  -1.25189971  0.72278464  9.47793301
  -1.24965820 -2.16887054 11.53298007
  -1.27310303  6.47375536 11.53177666
  -1.25700139  3.61483772 13.57804790
  -1.25088030  0.72219608 15.67638552
   3.73091226  3.61724176  7.42838310
   3.75683206  0.72324273  9.47711544
   3.75110769 -2.16570304 11.52657779
   1.25621792  5.06200000  9.47950963
   1.25346789  2.16667102 11.53298007
   1.24991386 -0.72163810 13.59833557
  -0.00000000 -2.89928745  2.80640232
  -0.00000000 -5.78379280  4.87007040
  -2.51085658  1.44964372  2.80640232
  -2.50736174 -1.44762598  4.85360021
  -2.51842049 -4.32929713  6.91486744
  -5.00891149  2.89189640  4.87007040
  -5.00849154 -0.01636755  6.91486744
  -5.01515238 -2.89549957  8.97980487
   2.51085658  1.44964372  2.80640232
   2.50736174 -1.44762598  4.85360021
   2.51842049 -4.32929713  6.91486744
   0.00000000  2.89525196  4.85360021
   0.00000000 -0.00000000  6.90307674
  -0.00000000 -2.89189161  8.96143343
  -2.49007106  4.34566469  6.91486744
  -2.50445159  1.44594580  8.96143343
  -2.50005583 -1.44340791 11.01695032
   5.00891149  2.89189640  4.87007040
   5.00849154 -0.01636755  6.91486744
   5.01515238 -2.89549957  8.97980487
   2.49007106  4.34566469  6.91486744
   2.50445159  1.44594580  8.96143343
   2.50005583 -1.44340791 11.01695032
   0.00000000  5.79099915  8.97980487
   0.00000000  2.88681581 11.01695032
   0.00000000 -0.00000000 13.08083569
  -0.00000000 -7.14251989  7.37718389
  -0.00000000 -1.44557245  3.29165474
  -0.00000000 -4.33604845  5.37681207
  -2.50805112 -5.79339774  9.47241713
  -2.50342306 -0.00159361  5.36520852
  -2.50996436 -2.88787307  7.42558798
  -4.96988509 -4.33941725 11.53177666
  -4.99807939  1.42244392  7.42838310
  -5.01192955 -1.44308336  9.47950963
   2.50805112 -5.79339774  9.47241713
   2.50342306 -0.00159361  5.36520852
   2.50996436 -2.88787307  7.42558798
  -0.00000000 -4.34515144 11.52282392
   0.00000000  1.44526957  7.42082662
   0.00000000 -1.44556927  9.47793301
  -2.50204060 -2.89601400 13.57804790
  -2.50476261  2.89189064  9.47711544
  -2.50312609  0.00219952 11.53298007
   4.96988509 -4.33941725 11.53177666
   4.99807939  1.42244392  7.42838310
   5.01192955 -1.44308336  9.47950963
   2.50204060 -2.89601400 13.57804790
   2.50476261  2.89189064  9.47711544
   2.50312609  0.00219952 11.53298007
  -0.00000000 -1.44439215 15.67638552
   0.00000000  4.33140607 11.52657779
   0.00000000  1.44327621 13.59833557
 


--------------------------------------------------------------------------------------------------------


 use parallel FFT for orbitals z direction half grid
 k-point  1 :   0.0000 0.0000 0.0000  plane waves:   10988

 maximum and minimum number of plane-waves per node :       696      679

 maximum number of plane-waves:     10988
 maximum index in each direction: 
   IXMAX=   17   IYMAX=   17   IZMAX=   17
   IXMIN=  -17   IYMIN=  -17   IZMIN=    0


 real space projection operators:
  total allocation   :      40841.81 KBytes
  max/ min on nodes  :       2928.50       2334.94


 parallel 3D FFT for wavefunctions:
    minimum data exchange during FFTs selected (reduces bandwidth)
 parallel 3D FFT for charge:
    minimum data exchange during FFTs selected (reduces bandwidth)


 FFT grid for exact exchange (Hartree Fock) 
  NGX = 36; NGY = 36; NGZ = 36

 use parallel FFT for orbitals z direction half grid
 
 Radii for the augmentation spheres in the non-local exchange
 for species   1 augmentation radius   1.055 (default was   0.989)
       energy cutoff for augmentation   1600.0
 for species   2 augmentation radius   0.795 (default was   0.699)
       energy cutoff for augmentation   1600.0

 real space projection operators:
  total allocation   :       1318.99 KBytes
  max/ min on nodes  :        110.25         69.47

 Maximum index for augmentation-charges in exchange            37
  SETUP_FOCK is finished

 total amount of memory used by VASP MPI-rank0    40004. kBytes
=======================================================================

   base      :      30000. kBytes
   nonlr-proj:       3647. kBytes
   fftplans  :       1350. kBytes
   grid      :       3557. kBytes
   one-center:         43. kBytes
   HF        :          9. kBytes
   wavefun   :       1398. kBytes
 
     INWAV:  cpu time    0.3701: real time    0.3735
 Broyden mixing: mesh for mixing (old mesh)
   NGX = 35   NGY = 35   NGZ = 35
  (NGX  =140   NGY  =140   NGZ  =140)
  gives a total of  42875 points

 initial charge density was supplied:
 charge density of overlapping atoms calculated
 number of electron     860.0000000 magnetization     129.0000000
 charge density for first step will be calculated from the start-wavefunctions


--------------------------------------------------------------------------------------------------------


 Maximum index for non-local projection operator           457
 Maximum index for augmentation-charges           529 (set IRDMAX)


--------------------------------------------------------------------------------------------------------


 initial charge from wavefunction
 First call to EWALD:  gamma=   0.166
 Maximum number of real-space cells 3x 3x 3
 Maximum number of reciprocal cells 3x 3x 3

    FEWALD:  cpu time    0.0107: real time    0.0107

 ----------------------------------------------------------------------------- 
|                                                                             |
|           W    W    AA    RRRRR   N    N  II  N    N   GGGG   !!!           |
|           W    W   A  A   R    R  NN   N  II  NN   N  G    G  !!!           |
|           W    W  A    A  R    R  N N  N  II  N N  N  G       !!!           |
|           W WW W  AAAAAA  RRRRR   N  N N  II  N  N N  G  GGG   !            |
|           WW  WW  A    A  R   R   N   NN  II  N   NN  G    G                |
|           W    W  A    A  R    R  N    N  II  N    N   GGGG   !!!           |
|                                                                             |
|      ALGO=A and IALGO=5X tend to fail with the tetrahedron method           |
|      (e.g. Bloechls method ISMEAR=-5 is not variational)                    |
|      please switch to IMSEAR=0-n, except for DOS calculations               |
|      For DOS calculations use IALGO=53 after preconverging with ISMEAR>=0   |
|          I HOPE YOU KNOW, WHAT YOU ARE  DOING                               |
|                                                                             |
 ----------------------------------------------------------------------------- 



--------------------------------------- Iteration      1(   1)  ---------------------------------------


    POTLOK:  cpu time    0.1476: real time    0.1478
    SETDIJ:  cpu time    0.0488: real time    0.0488
    TRIAL :  cpu time    9.5172: real time    9.5186
    CORREC:  cpu time    9.3703: real time    9.3711
    CHARGE:  cpu time    0.0262: real time    0.0262
    --------------------------------------------
      LOOP:  cpu time   19.1141: real time   19.1222

 eigenvalue-minimisations  :     0
 total energy-change (2. order) :-0.2406081E+04  (-0.2577118E+01)
 number of electron     859.9999991 magnetization       1.9999999
 augmentation part       20.0004697 magnetization       0.1363002

 Free energy of the ion-electron system (eV)
  ---------------------------------------------------
  alpha Z        PSCENC =      3112.96981489
  Ewald energy   TEWEN  =    -37448.55501798
  -Hartree energ DENC   =     -2913.55440470
  -exchange      EXHF   =      1980.76990567
  -V(xc)+E(xc)   XCENC  =      2427.49350151
  PAW double counting   =     14974.48172740   -15160.85696405
  entropy T*S    EENTRO =         0.00000000
  eigenvalues    EBANDS =      -435.98734250
  atomic energy  EATOM  =     31057.15824686
  ---------------------------------------------------
  free energy    TOTEN  =     -2406.08053289 eV

  energy without entropy =    -2406.08053289  energy(sigma->0) =    -2406.08053289
  exchange ACFDT corr.  =        -0.06349370  see jH, gK, PRB 81, 115126


--------------------------------------------------------------------------------------------------------




--------------------------------------- Iteration      1(   2)  ---------------------------------------


    POTLOK:  cpu time    0.1314: real time    0.1314
    SETDIJ:  cpu time    0.0436: real time    0.0436
    TRIAL :  cpu time    9.4769: real time    9.4778
    CORREC:  cpu time    9.3180: real time    9.3187
    CHARGE:  cpu time    0.0228: real time    0.0228
    --------------------------------------------
      LOOP:  cpu time   18.9946: real time   18.9962

 eigenvalue-minimisations  :     0
 total energy-change (2. order) :-0.2577996E+01  (-0.2611259E+00)
 number of electron     859.9999991 magnetization       1.9999999
 augmentation part       19.9683360 magnetization       0.1366187

 Free energy of the ion-electron system (eV)
  ---------------------------------------------------
  alpha Z        PSCENC =      3112.96981489
  Ewald energy   TEWEN  =    -37448.55501798
  -Hartree energ DENC   =     -2855.73333833
  -exchange      EXHF   =      1979.46314157
  -V(xc)+E(xc)   XCENC  =      2423.35634184
  PAW double counting   =     14834.65704836   -15017.84254745
  entropy T*S    EENTRO =         0.00000000
  eigenvalues    EBANDS =      -494.13221905
  atomic energy  EATOM  =     31057.15824686
  ---------------------------------------------------
  free energy    TOTEN  =     -2408.65852928 eV

  energy without entropy =    -2408.65852928  energy(sigma->0) =    -2408.65852928
  exchange ACFDT corr.  =        -0.06382550  see jH, gK, PRB 81, 115126


--------------------------------------------------------------------------------------------------------




--------------------------------------- Iteration      1(   3)  ---------------------------------------


    POTLOK:  cpu time    0.1369: real time    0.1369
    SETDIJ:  cpu time    0.0424: real time    0.0424
    TRIAL :  cpu time    9.5224: real time    9.5234
    CORREC:  cpu time    9.3001: real time    9.3011
    CHARGE:  cpu time    0.0219: real time    0.0219
    --------------------------------------------
      LOOP:  cpu time   19.0240: real time   19.0260

 eigenvalue-minimisations  :     0
 total energy-change (2. order) :-0.2611484E+00  (-0.3206003E-01)
 number of electron     859.9999991 magnetization       1.9999999
 augmentation part       19.9688084 magnetization       0.1365833

 Free energy of the ion-electron system (eV)
  ---------------------------------------------------
  alpha Z        PSCENC =      3112.96981489
  Ewald energy   TEWEN  =    -37448.55501798
  -Hartree energ DENC   =     -2868.86124764
  -exchange      EXHF   =      1981.61524703
  -V(xc)+E(xc)   XCENC  =      2424.36845583
  PAW double counting   =     14873.93161060   -15056.77667509
  entropy T*S    EENTRO =         0.00000000
  eigenvalues    EBANDS =      -484.77011214
  atomic energy  EATOM  =     31057.15824686
  ---------------------------------------------------
  free energy    TOTEN  =     -2408.91967763 eV

  energy without entropy =    -2408.91967763  energy(sigma->0) =    -2408.91967763
  exchange ACFDT corr.  =        -0.05364745  see jH, gK, PRB 81, 115126


--------------------------------------------------------------------------------------------------------




--------------------------------------- Iteration      1(   4)  ---------------------------------------


    POTLOK:  cpu time    0.1287: real time    0.1287
    SETDIJ:  cpu time    0.0430: real time    0.0430
    TRIAL :  cpu time    9.4332: real time    9.4341
    CORREC:  cpu time    9.3298: real time    9.3305
    CHARGE:  cpu time    0.0218: real time    0.0218
    --------------------------------------------
      LOOP:  cpu time   18.9569: real time   18.9585

 eigenvalue-minimisations  :     0
 total energy-change (2. order) :-0.3200816E-01  (-0.9093369E-02)
 number of electron     859.9999991 magnetization       1.9999999
 augmentation part       19.9700949 magnetization       0.1366229

 Free energy of the ion-electron system (eV)
  ---------------------------------------------------
  alpha Z        PSCENC =      3112.96981489
  Ewald energy   TEWEN  =    -37448.55501798
  -Hartree energ DENC   =     -2870.41240759
  -exchange      EXHF   =      1981.79654980
  -V(xc)+E(xc)   XCENC  =      2424.49428480
  PAW double counting   =     14876.48954443   -15059.32865743
  entropy T*S    EENTRO =         0.00000000
  eigenvalues    EBANDS =      -483.56404358
  atomic energy  EATOM  =     31057.15824686
  ---------------------------------------------------
  free energy    TOTEN  =     -2408.95168580 eV

  energy without entropy =    -2408.95168580  energy(sigma->0) =    -2408.95168580
  exchange ACFDT corr.  =        -0.05365416  see jH, gK, PRB 81, 115126


--------------------------------------------------------------------------------------------------------




--------------------------------------- Iteration      1(   5)  ---------------------------------------


    POTLOK:  cpu time    0.1282: real time    0.1282
    SETDIJ:  cpu time    0.0430: real time    0.0430
    TRIAL :  cpu time    9.4105: real time    9.4114
    CORREC:  cpu time    9.3492: real time    9.3499
    CHARGE:  cpu time    0.0227: real time    0.0227
    --------------------------------------------
      LOOP:  cpu time   18.9538: real time   18.9555

 eigenvalue-minimisations  :     0
 total energy-change (2. order) :-0.9083804E-02  (-0.2571486E-02)
 number of electron     859.9999991 magnetization       1.9999999
 augmentation part       19.9740297 magnetization       0.1365675

 Free energy of the ion-electron system (eV)
  ---------------------------------------------------
  alpha Z        PSCENC =      3112.96981489
  Ewald energy   TEWEN  =    -37448.55501798
  -Hartree energ DENC   =     -2871.08112418
  -exchange      EXHF   =      1981.86040364
  -V(xc)+E(xc)   XCENC  =      2424.54454384
  PAW double counting   =     14875.99521523   -15058.87738108
  entropy T*S    EENTRO =         0.00000000
  eigenvalues    EBANDS =      -482.97547082
  atomic energy  EATOM  =     31057.15824686
  ---------------------------------------------------
  free energy    TOTEN  =     -2408.96076960 eV

  energy without entropy =    -2408.96076960  energy(sigma->0) =    -2408.96076960
  exchange ACFDT corr.  =        -0.05359766  see jH, gK, PRB 81, 115126


--------------------------------------------------------------------------------------------------------




--------------------------------------- Iteration      1(   6)  ---------------------------------------


    POTLOK:  cpu time    0.1293: real time    0.1294
    SETDIJ:  cpu time    0.0433: real time    0.0433
    TRIAL :  cpu time    9.9975: real time    9.9988
    CORREC:  cpu time    9.3866: real time    9.3872
    CHARGE:  cpu time    0.0218: real time    0.0218
    --------------------------------------------
      LOOP:  cpu time   19.5789: real time   19.5808

 eigenvalue-minimisations  :     0
 total energy-change (2. order) :-0.2603426E-02  (-0.5838669E-03)
 number of electron     859.9999991 magnetization       1.9999999
 augmentation part       19.9760559 magnetization       0.1366238

 Free energy of the ion-electron system (eV)
  ---------------------------------------------------
  alpha Z        PSCENC =      3112.96981489
  Ewald energy   TEWEN  =    -37448.55501798
  -Hartree energ DENC   =     -2870.70190191
  -exchange      EXHF   =      1981.83351177
  -V(xc)+E(xc)   XCENC  =      2424.51586586
  PAW double counting   =     14874.62801119   -15057.52350321
  entropy T*S    EENTRO =         0.00000000
  eigenvalues    EBANDS =      -483.28840051
  atomic energy  EATOM  =     31057.15824686
  ---------------------------------------------------
  free energy    TOTEN  =     -2408.96337303 eV

  energy without entropy =    -2408.96337303  energy(sigma->0) =    -2408.96337303
  exchange ACFDT corr.  =        -0.05356199  see jH, gK, PRB 81, 115126


--------------------------------------------------------------------------------------------------------




--------------------------------------- Iteration      1(   7)  ---------------------------------------


    POTLOK:  cpu time    0.1287: real time    0.1287
    SETDIJ:  cpu time    0.0422: real time    0.0422
    TRIAL :  cpu time    9.3564: real time    9.3571
    CORREC:  cpu time    9.3639: real time    9.3647
    CHARGE:  cpu time    0.0219: real time    0.0219
    --------------------------------------------
      LOOP:  cpu time   18.9134: real time   18.9148

 eigenvalue-minimisations  :     0
 total energy-change (2. order) :-0.5918584E-03  (-0.1275639E-03)
 number of electron     859.9999991 magnetization       1.9999999
 augmentation part       19.9766003 magnetization       0.1366339

 Free energy of the ion-electron system (eV)
  ---------------------------------------------------
  alpha Z        PSCENC =      3112.96981489
  Ewald energy   TEWEN  =    -37448.55501798
  -Hartree energ DENC   =     -2870.66008669
  -exchange      EXHF   =      1981.83174420
  -V(xc)+E(xc)   XCENC  =      2424.51200208
  PAW double counting   =     14875.09256244   -15057.99098446
  entropy T*S    EENTRO =         0.00000000
  eigenvalues    EBANDS =      -483.32224623
  atomic energy  EATOM  =     31057.15824686
  ---------------------------------------------------
  free energy    TOTEN  =     -2408.96396488 eV

  energy without entropy =    -2408.96396488  energy(sigma->0) =    -2408.96396488
  exchange ACFDT corr.  =        -0.05354685  see jH, gK, PRB 81, 115126


--------------------------------------------------------------------------------------------------------




--------------------------------------- Iteration      1(   8)  ---------------------------------------


    POTLOK:  cpu time    0.1280: real time    0.1280
    SETDIJ:  cpu time    0.0431: real time    0.0431
    TRIAL :  cpu time    9.3789: real time    9.3795
    CORREC:  cpu time    9.4047: real time    9.4053
    CHARGE:  cpu time    0.0220: real time    0.0220
    --------------------------------------------
      LOOP:  cpu time   18.9771: real time   18.9783

 eigenvalue-minimisations  :     0
 total energy-change (2. order) :-0.1283056E-03  (-0.3721983E-04)
 number of electron     859.9999991 magnetization       1.9999999
 augmentation part       19.9765279 magnetization       0.1366362

 Free energy of the ion-electron system (eV)
  ---------------------------------------------------
  alpha Z        PSCENC =      3112.96981489
  Ewald energy   TEWEN  =    -37448.55501798
  -Hartree energ DENC   =     -2870.74032571
  -exchange      EXHF   =      1981.83876436
  -V(xc)+E(xc)   XCENC  =      2424.51772300
  PAW double counting   =     14875.69949549   -15058.59808437
  entropy T*S    EENTRO =         0.00000000
  eigenvalues    EBANDS =      -483.25470974
  atomic energy  EATOM  =     31057.15824686
  ---------------------------------------------------
  free energy    TOTEN  =     -2408.96409319 eV

  energy without entropy =    -2408.96409319  energy(sigma->0) =    -2408.96409319
  exchange ACFDT corr.  =        -0.05353872  see jH, gK, PRB 81, 115126


--------------------------------------------------------------------------------------------------------




--------------------------------------- Iteration      1(   9)  ---------------------------------------


    POTLOK:  cpu time    0.1281: real time    0.1281
    SETDIJ:  cpu time    0.0428: real time    0.0428
    TRIAL :  cpu time    9.3368: real time    9.3379
    CORREC:  cpu time    9.3543: real time    9.3549
    CHARGE:  cpu time    0.0218: real time    0.0218
    --------------------------------------------
      LOOP:  cpu time   18.8841: real time   18.8858

 eigenvalue-minimisations  :     0
 total energy-change (2. order) :-0.3737478E-04  (-0.1365662E-04)
 number of electron     859.9999991 magnetization       1.9999999
 augmentation part       19.9762333 magnetization       0.1366432

 Free energy of the ion-electron system (eV)
  ---------------------------------------------------
  alpha Z        PSCENC =      3112.96981489
  Ewald energy   TEWEN  =    -37448.55501798
  -Hartree energ DENC   =     -2870.74905307
  -exchange      EXHF   =      1981.83957925
  -V(xc)+E(xc)   XCENC  =      2424.51850651
  PAW double counting   =     14875.83351867   -15058.73069260
  entropy T*S    EENTRO =         0.00000000
  eigenvalues    EBANDS =      -483.24903309
  atomic energy  EATOM  =     31057.15824686
  ---------------------------------------------------
  free energy    TOTEN  =     -2408.96413056 eV

  energy without entropy =    -2408.96413056  energy(sigma->0) =    -2408.96413056
  exchange ACFDT corr.  =        -0.05353348  see jH, gK, PRB 81, 115126


--------------------------------------------------------------------------------------------------------




--------------------------------------- Iteration      1(  10)  ---------------------------------------


    POTLOK:  cpu time    0.1288: real time    0.1288
    SETDIJ:  cpu time    0.0433: real time    0.0433
    TRIAL :  cpu time    9.3778: real time    9.3788
    CORREC:  cpu time    9.3720: real time    9.3726
    CHARGE:  cpu time    0.0218: real time    0.0218
    --------------------------------------------
      LOOP:  cpu time   18.9440: real time   18.9456

 eigenvalue-minimisations  :     0
 total energy-change (2. order) :-0.1388703E-04  (-0.4802805E-05)
 number of electron     859.9999991 magnetization       1.9999999
 augmentation part       19.9760830 magnetization       0.1366422

 Free energy of the ion-electron system (eV)
  ---------------------------------------------------
  alpha Z        PSCENC =      3112.96981489
  Ewald energy   TEWEN  =    -37448.55501798
  -Hartree energ DENC   =     -2870.72939143
  -exchange      EXHF   =      1981.83798741
  -V(xc)+E(xc)   XCENC  =      2424.51713784
  PAW double counting   =     14875.73494479   -15058.63113339
  entropy T*S    EENTRO =         0.00000000
  eigenvalues    EBANDS =      -483.26673344
  atomic energy  EATOM  =     31057.15824686
  ---------------------------------------------------
  free energy    TOTEN  =     -2408.96414445 eV

  energy without entropy =    -2408.96414445  energy(sigma->0) =    -2408.96414445
  exchange ACFDT corr.  =        -0.05353057  see jH, gK, PRB 81, 115126


--------------------------------------------------------------------------------------------------------




--------------------------------------- Iteration      1(  11)  ---------------------------------------


    POTLOK:  cpu time    0.1284: real time    0.1284
    SETDIJ:  cpu time    0.0424: real time    0.0424
    TRIAL :  cpu time    9.3662: real time    9.3669
    CORREC:  cpu time    9.3394: real time    9.3399
    CHARGE:  cpu time    0.0219: real time    0.0219
    --------------------------------------------
      LOOP:  cpu time   18.8986: real time   18.8998

 eigenvalue-minimisations  :     0
 total energy-change (2. order) :-0.5056281E-05  (-0.1659539E-05)
 number of electron     859.9999991 magnetization       1.9999999
 augmentation part       19.9760858 magnetization       0.1366384

 Free energy of the ion-electron system (eV)
  ---------------------------------------------------
  alpha Z        PSCENC =      3112.96981489
  Ewald energy   TEWEN  =    -37448.55501798
  -Hartree energ DENC   =     -2870.72603406
  -exchange      EXHF   =      1981.83777678
  -V(xc)+E(xc)   XCENC  =      2424.51690012
  PAW double counting   =     14875.66375298   -15058.55990522
  entropy T*S    EENTRO =         0.00000000
  eigenvalues    EBANDS =      -483.26968387
  atomic energy  EATOM  =     31057.15824686
  ---------------------------------------------------
  free energy    TOTEN  =     -2408.96414951 eV

  energy without entropy =    -2408.96414951  energy(sigma->0) =    -2408.96414951
  exchange ACFDT corr.  =        -0.05352888  see jH, gK, PRB 81, 115126


--------------------------------------------------------------------------------------------------------


  average scaling for gradient   1.2005


 average (electrostatic) potential at core
  the test charge radii are     0.9892  0.6991
  (the norm of the test charge is              1.0000)
       1 -74.5561       2 -41.6507       3 -41.6224       4 -41.6584       5 -41.6174
       6 -41.6819       7 -41.5879       8 -41.4821       9 -41.7275      10 -41.2535
      11 -41.6139      12 -41.6249      13 -41.7333      14 -41.6522      15 -41.6868
      16 -41.6621      17 -41.6508      18 -41.6452      19 -41.6407      20 -41.2253
      21 -41.4430      22 -41.7798      23 -41.5961      24 -41.6591      25 -41.6457
      26 -40.8451      27 -41.6386      28 -41.5041      29 -41.5548      30 -41.5363
      31 -41.5575      32 -41.3529      33 -41.7473      34 -41.5225      35 -41.7342
      36 -41.5721      37 -41.5467      38 -41.8138      39 -41.4914      40 -41.7189
      41 -41.6263      42 -41.6686      43 -41.5282      44 -41.6980      45 -41.6094
      46 -41.6144      47 -41.5600      48 -41.6892      49 -41.6060      50 -41.5517
      51 -41.7079      52 -41.6655      53 -41.6889      54 -41.6760      55 -41.7501
      56 -41.6035      57 -41.3591      58 -41.6150      59 -41.6670      60 -41.6740
      61 -41.7137      62 -41.5958      63 -41.2906      64 -41.6078      65 -41.6538
      66 -41.6653      67 -41.6232      68 -41.6925      69 -41.6597      70 -41.7130
      71 -41.6597      72 -41.6373      73 -41.1479      74 -41.6136      75 -41.1216
      76 -41.4476      77 -41.6710      78 -41.6653      79 -41.7136      80 -41.6419
      81 -41.4621      82 -39.7012      83 -41.5588      84 -41.7819      85 -41.5492
      86 -41.6521      87 -41.6598      88 -41.7322      89 -41.6565      90 -41.2555
      91 -41.6803      92 -41.6511      93 -41.5362      94 -41.6531      95 -41.6615
      96 -41.6663      97 -41.6413      98 -41.6936      99 -41.4388     100 -41.5372
     101 -41.5910     102 -41.7133     103 -41.5930     104 -41.6602     105 -41.6879
     106 -41.6556     107 -41.6754     108 -41.6558     109 -41.2588     110 -41.6543
     111 -41.7336     112 -41.6607     113 -41.6519     114 -41.5501     115 -41.7815
     116 -41.5568     117 -39.6983     118 -41.6542     119 -41.6766     120 -41.6562
     121 -41.6871     122 -41.6596     123 -41.5941     124 -41.7137     125 -41.5906
     126 -41.5408     127 -41.4376     128 -41.6946     129 -41.6369     130 -41.6662
     131 -41.6617     132 -41.6537     133 -41.5348     134 -41.6513     135 -41.6803
     136 -41.1263     137 -41.6156     138 -41.1497     139 -41.4627     140 -41.6400
     141 -41.7143     142 -41.6687     143 -41.6718     144 -41.4492     145 -41.6625
     146 -41.6539     147 -41.6090     148 -41.6356     149 -41.6600     150 -41.7133
     151 -41.6598     152 -41.6925     153 -41.6242     154 -41.3562     155 -41.6051
     156 -41.7475     157 -41.2899     158 -41.5956     159 -41.7097     160 -41.6751
     161 -41.6678     162 -41.6144     163 -41.5431     164 -41.5527     165 -41.5213
     166 -41.5722     167 -41.7338     168 -41.5571     169 -41.7490     170 -41.3525
     171 -41.6137     172 -41.6891     173 -41.5593     174 -41.6644     175 -41.6753
     176 -41.6888     177 -41.6103     178 -41.7077     179 -41.5528     180 -41.5436
     181 -41.4929     182 -41.8120     183 -41.5251     184 -41.6088     185 -41.6965
     186 -41.7198     187 -41.6680     188 -41.6274     189 -40.8474     190 -41.5092
     191 -41.6386     192 -41.5939     193 -41.6474     194 -41.6591     195 -41.2237
     196 -41.7835     197 -41.4427     198 -41.6508     199 -41.6396     200 -41.6451
     201 -41.6524     202 -41.6605     203 -41.6863     204 -41.6176     205 -41.7334
     206 -41.6256     207 -41.4812     208 -41.2533     209 -41.7252     210 -41.6168
     211 -41.5874     212 -41.6808     213 -41.6497     214 -41.6563     215 -41.6228
 
 
 
 E-fermi :   0.0200     XC(G=0): -10.8432     alpha+bet :-18.0036


 spin component 1

 k-point     1 :       0.0000    0.0000    0.0000
  band No.  band energies     occupation 
      1     -14.4191      1.00000
      2     -13.3024      1.00000
      3     -13.3977      1.00000
      4     -13.3294      1.00000
      5     -13.3452      1.00000
      6     -13.2504      1.00000
      7     -13.1577      1.00000
      8     -12.2722      1.00000
      9     -12.1949      1.00000
     10     -12.2994      1.00000
     11     -12.2733      1.00000
     12     -12.2066      1.00000
     13     -12.2204      1.00000
     14     -12.2362      1.00000
     15     -12.1583      1.00000
     16     -12.1998      1.00000
     17     -12.1818      1.00000
     18     -12.0669      1.00000
     19     -11.8778      1.00000
     20     -11.1502      1.00000
     21     -11.1447      1.00000
     22     -11.1443      1.00000
     23     -11.1265      1.00000
     24     -11.1224      1.00000
     25     -11.1021      1.00000
     26     -11.0380      1.00000
     27     -10.8443      1.00000
     28     -10.0531      1.00000
     29     -10.0352      1.00000
     30     -10.0159      1.00000
     31     -10.0186      1.00000
     32      -9.9651      1.00000
     33      -9.9229      1.00000
     34      -9.0805      1.00000
     35      -9.0708      1.00000
     36      -9.0384      1.00000
     37      -9.0395      1.00000
     38      -9.0582      1.00000
     39      -9.0071      1.00000
     40      -9.0372      1.00000
     41      -9.0255      1.00000
     42      -9.0288      1.00000
     43      -9.0093      1.00000
     44      -9.0363      1.00000
     45      -9.0012      1.00000
     46      -9.0105      1.00000
     47      -8.9819      1.00000
     48      -8.9739      1.00000
     49      -8.9954      1.00000
     50      -8.9846      1.00000
     51      -8.9502      1.00000
     52      -8.9379      1.00000
     53      -8.9263      1.00000
     54      -8.8615      1.00000
     55      -8.9682      1.00000
     56      -8.7295      1.00000
     57      -8.6496      1.00000
     58      -8.2008      1.00000
     59      -8.2248      1.00000
     60      -8.1756      1.00000
     61      -8.1747      1.00000
     62      -8.1733      1.00000
     63      -8.1611      1.00000
     64      -8.1665      1.00000
     65      -8.1573      1.00000
     66      -8.1574      1.00000
     67      -8.1335      1.00000
     68      -8.1707      1.00000
     69      -8.1541      1.00000
     70      -8.1363      1.00000
     71      -8.1075      1.00000
     72      -8.1477      1.00000
     73      -8.0616      1.00000
     74      -8.1021      1.00000
     75      -8.0306      1.00000
     76      -8.0878      1.00000
     77      -8.0475      1.00000
     78      -7.9788      1.00000
     79      -8.0643      1.00000
     80      -7.5073      1.00000
     81      -7.0169      1.00000
     82      -6.3422      1.00000
     83      -6.3065      1.00000
     84      -6.3298      1.00000
     85      -6.2991      1.00000
     86      -6.2952      1.00000
     87      -6.2712      1.00000
     88      -6.2929      1.00000
     89      -6.2578      1.00000
     90      -6.2401      1.00000
     91      -6.2048      1.00000
     92      -6.0293      1.00000
     93      -5.6255      1.00000
     94      -4.8797      1.00000
     95      -4.8779      1.00000
     96      -4.8462      1.00000
     97      -4.8379      1.00000
     98      -4.8265      1.00000
     99      -4.7759      1.00000
    100      -4.3348      1.00000
    101      -4.3671      1.00000
    102      -4.3313      1.00000
    103      -4.3200      1.00000
    104      -4.3171      1.00000
    105      -4.3162      1.00000
    106      -4.3038      1.00000
    107      -4.3017      1.00000
[...]
    4ORBIT:  cpu time    0.0000: real time    0.0000
 


 total charge     
 
# of ion       s       p       d       tot
------------------------------------------
    1        0.694   0.976   0.000   1.670
    2        0.836   1.737   0.000   2.573
    3        0.837   1.754   0.000   2.592
    4        0.839   1.761   0.000   2.599
    5        0.839   1.761   0.000   2.600
    6        0.839   1.761   0.000   2.599
    7        0.839   1.764   0.000   2.603
    8        0.842   1.772   0.000   2.614
    9        0.839   1.762   0.000   2.601
   10        0.842   1.778   0.000   2.621
   11        0.839   1.762   0.000   2.600
   12        0.839   1.761   0.000   2.600
   13        0.839   1.760   0.000   2.600
   14        0.839   1.763   0.000   2.602
   15        0.839   1.761   0.000   2.600
   16        0.839   1.764   0.000   2.603
   17        0.839   1.760   0.000   2.599
   18        0.840   1.767   0.000   2.607
   19        0.838   1.761   0.000   2.600
   20        0.843   1.769   0.000   2.612
   21        0.839   1.765   0.000   2.604
   22        0.842   1.763   0.000   2.606
   23        0.838   1.761   0.000   2.600
   24        0.840   1.766   0.000   2.606
   25        0.839   1.760   0.000   2.598
   26        0.848   1.753   0.000   2.601
   27        0.839   1.760   0.000   2.599
   28        0.837   1.753   0.000   2.590
   29        0.838   1.752   0.000   2.590
   30        0.839   1.764   0.000   2.603
   31        0.838   1.753   0.000   2.590
   32        0.838   1.755   0.000   2.594
   33        0.840   1.764   0.000   2.604
   34        0.839   1.764   0.000   2.603
   35        0.840   1.764   0.000   2.604
   36        0.838   1.760   0.000   2.598
   37        0.838   1.753   0.000   2.591
   38        0.839   1.743   0.000   2.582
   39        0.840   1.770   0.000   2.610
   40        0.839   1.745   0.000   2.584
   41        0.839   1.762   0.000   2.601
   42        0.839   1.764   0.000   2.604
   43        0.840   1.768   0.000   2.608
   44        0.839   1.764   0.000   2.603
   45        0.839   1.762   0.000   2.601
   46        0.839   1.763   0.000   2.602
   47        0.840   1.769   0.000   2.609
   48        0.838   1.759   0.000   2.597
   49        0.840   1.768   0.000   2.608
   50        0.839   1.766   0.000   2.605
   51        0.839   1.762   0.000   2.601
   52        0.838   1.759   0.000   2.597
   53        0.839   1.762   0.000   2.601
   54        0.838   1.759   0.000   2.598
   55        0.836   1.736   0.000   2.572
   56        0.839   1.762   0.000   2.600
   57        0.842   1.774   0.000   2.617
   58        0.837   1.754   0.000   2.592
   59        0.839   1.761   0.000   2.600
   60        0.839   1.762   0.000   2.602
   61        0.839   1.761   0.000   2.599
   62        0.839   1.764   0.000   2.603
   63        0.842   1.777   0.000   2.619
   64        0.839   1.762   0.000   2.600
   65        0.839   1.763   0.000   2.602
   66        0.839   1.760   0.000   2.599
   67        0.839   1.761   0.000   2.600
   68        0.839   1.761   0.000   2.600
   69        0.840   1.767   0.000   2.606
   70        0.839   1.761   0.000   2.600
   71        0.839   1.764   0.000   2.603
   72        0.838   1.761   0.000   2.600
   73        0.843   1.774   0.000   2.617
   74        0.838   1.761   0.000   2.599
   75        0.849   1.743   0.000   2.592
   76        0.839   1.765   0.000   2.604
   77        0.840   1.765   0.000   2.605
   78        0.839   1.759   0.000   2.598
   79        0.842   1.765   0.000   2.607
   80        0.839   1.760   0.000   2.599
   81        0.837   1.754   0.000   2.591
   82        0.845   1.791   0.000   2.636
   83        0.838   1.762   0.000   2.600
   84        0.843   1.760   0.000   2.602
   85        0.838   1.762   0.000   2.601
   86        0.840   1.762   0.000   2.601
   87        0.839   1.761   0.000   2.599
   88        0.843   1.758   0.000   2.601
   89        0.839   1.761   0.000   2.599
   90        0.836   1.739   0.000   2.575
   91        0.838   1.749   0.000   2.587
   92        0.838   1.761   0.000   2.599
   93        0.842   1.771   0.000   2.613
   94        0.838   1.760   0.000   2.599
   95        0.839   1.764   0.000   2.603
   96        0.839   1.761   0.000   2.600
   97        0.842   1.767   0.000   2.610
   98        0.839   1.761   0.000   2.600
   99        0.839   1.762   0.000   2.601
  100        0.839   1.763   0.000   2.602
  101        0.840   1.768   0.000   2.608
  102        0.839   1.762   0.000   2.601
  103        0.840   1.768   0.000   2.608
  104        0.839   1.762   0.000   2.601
  105        0.839   1.760   0.000   2.599
  106        0.839   1.763   0.000   2.602
  107        0.839   1.760   0.000   2.599
  108        0.837   1.755   0.000   2.592
  109        0.836   1.739   0.000   2.575
  110        0.839   1.761   0.000   2.600
  111        0.843   1.758   0.000   2.601
  112        0.839   1.761   0.000   2.599
  113        0.840   1.762   0.000   2.601
  114        0.838   1.762   0.000   2.601
  115        0.843   1.760   0.000   2.603
  116        0.838   1.762   0.000   2.601
  117        0.845   1.791   0.000   2.636
  118        0.837   1.755   0.000   2.592
  119        0.839   1.760   0.000   2.599
  120        0.839   1.763   0.000   2.602
  121        0.839   1.760   0.000   2.599
  122        0.839   1.762   0.000   2.601
  123        0.840   1.768   0.000   2.608
  124        0.839   1.762   0.000   2.601
  125        0.840   1.768   0.000   2.608
  126        0.839   1.763   0.000   2.601
  127        0.839   1.762   0.000   2.601
  128        0.839   1.761   0.000   2.600
  129        0.842   1.768   0.000   2.610
  130        0.839   1.761   0.000   2.600
  131        0.839   1.764   0.000   2.603
  132        0.838   1.760   0.000   2.599
  133        0.842   1.771   0.000   2.613
  134        0.838   1.761   0.000   2.599
  135        0.838   1.749   0.000   2.587
  136        0.849   1.743   0.000   2.592
  137        0.838   1.761   0.000   2.599
  138        0.843   1.774   0.000   2.617
  139        0.837   1.754   0.000   2.591
  140        0.839   1.760   0.000   2.599
  141        0.842   1.765   0.000   2.607
  142        0.839   1.759   0.000   2.598
  143        0.840   1.765   0.000   2.605
  144        0.839   1.765   0.000   2.604
  145        0.839   1.760   0.000   2.599
  146        0.839   1.763   0.000   2.602
  147        0.839   1.762   0.000   2.600
  148        0.838   1.761   0.000   2.600
  149        0.839   1.764   0.000   2.603
  150        0.839   1.761   0.000   2.600
  151        0.840   1.767   0.000   2.607
  152        0.839   1.761   0.000   2.600
  153        0.839   1.761   0.000   2.600
  154        0.842   1.775   0.000   2.617
  155        0.839   1.762   0.000   2.600
  156        0.836   1.736   0.000   2.572
  157        0.842   1.777   0.000   2.619
  158        0.839   1.764   0.000   2.603
  159        0.839   1.761   0.000   2.599
  160        0.839   1.762   0.000   2.601
  161        0.839   1.761   0.000   2.600
  162        0.837   1.754   0.000   2.592
  163        0.839   1.764   0.000   2.602
  164        0.838   1.752   0.000   2.590
  165        0.839   1.764   0.000   2.603
  166        0.838   1.759   0.000   2.598
  167        0.840   1.763   0.000   2.604
  168        0.837   1.753   0.000   2.590
  169        0.840   1.764   0.000   2.604
  170        0.839   1.755   0.000   2.594
  171        0.839   1.763   0.000   2.602
  172        0.838   1.759   0.000   2.597
  173        0.840   1.769   0.000   2.609
  174        0.838   1.759   0.000   2.597
  175        0.838   1.759   0.000   2.598
  176        0.839   1.762   0.000   2.601
  177        0.840   1.768   0.000   2.608
  178        0.839   1.762   0.000   2.601
  179        0.839   1.766   0.000   2.605
  180        0.838   1.753   0.000   2.591
  181        0.840   1.769   0.000   2.610
  182        0.839   1.743   0.000   2.582
  183        0.840   1.768   0.000   2.609
  184        0.839   1.762   0.000   2.602
  185        0.839   1.764   0.000   2.603
  186        0.839   1.745   0.000   2.584
  187        0.839   1.764   0.000   2.604
  188        0.839   1.762   0.000   2.601
  189        0.848   1.753   0.000   2.601
  190        0.837   1.753   0.000   2.590
  191        0.839   1.760   0.000   2.599
  192        0.838   1.761   0.000   2.600
  193        0.839   1.760   0.000   2.598
  194        0.840   1.766   0.000   2.606
  195        0.843   1.770   0.000   2.613
  196        0.842   1.763   0.000   2.605
  197        0.839   1.765   0.000   2.604
  198        0.839   1.760   0.000   2.599
  199        0.838   1.761   0.000   2.600
  200        0.840   1.767   0.000   2.607
  201        0.839   1.763   0.000   2.602
  202        0.839   1.764   0.000   2.603
  203        0.839   1.761   0.000   2.600
  204        0.839   1.762   0.000   2.600
  205        0.839   1.760   0.000   2.600
  206        0.839   1.761   0.000   2.600
  207        0.842   1.772   0.000   2.614
  208        0.842   1.779   0.000   2.621
  209        0.839   1.762   0.000   2.601
  210        0.839   1.761   0.000   2.600
  211        0.839   1.764   0.000   2.603
  212        0.839   1.761   0.000   2.599
  213        0.836   1.737   0.000   2.573
  214        0.839   1.761   0.000   2.600
  215        0.837   1.754   0.000   2.592
--------------------------------------------------
tot        180.327 377.902   0.000 558.230
 


 magnetization (x)
 
# of ion       s       p       d       tot
------------------------------------------
    1       -0.009   0.061   0.000   0.052
    2       -0.001   0.004   0.000   0.003
    3       -0.000   0.001   0.000   0.001
    4       -0.000   0.000   0.000   0.000
    5       -0.000   0.001   0.000   0.001
    6       -0.000   0.001   0.000   0.001
    7        0.000   0.001   0.000   0.001
    8       -0.000   0.005   0.000   0.005
    9       -0.000   0.002   0.000   0.002
   10        0.000   0.002   0.000   0.002
   11       -0.000   0.000   0.000   0.000
   12        0.000   0.001   0.000   0.001
   13        0.000   0.006   0.000   0.006
   14        0.000   0.003   0.000   0.003
   15        0.000   0.002   0.000   0.003
   16        0.000   0.001   0.000   0.001
   17        0.000   0.003   0.000   0.003
   18        0.000   0.002   0.000   0.002
   19       -0.000   0.000   0.000   0.000
   20        0.000   0.012   0.000   0.012
   21       -0.000  -0.000   0.000  -0.000
   22        0.002   0.020   0.000   0.021
   23        0.000   0.001   0.000   0.001
   24        0.000   0.004   0.000   0.004
   25        0.000   0.003   0.000   0.003
   26        0.011   0.120   0.000   0.131
   27        0.000   0.004   0.000   0.004
   28        0.000   0.004   0.000   0.004
   29        0.000   0.003   0.000   0.003
   30       -0.000   0.001   0.000   0.001
   31        0.000   0.003   0.000   0.003
   32        0.000   0.001   0.000   0.001
   33        0.000   0.009   0.000   0.009
   34       -0.000   0.001   0.000   0.001
   35        0.000   0.009   0.000   0.009
   36       -0.000   0.001   0.000   0.001
   37       -0.000   0.004   0.000   0.004
   38        0.001   0.020   0.000   0.021
   39        0.000   0.002   0.000   0.002
   40        0.001   0.016   0.000   0.018
   41       -0.000   0.001   0.000   0.001
   42        0.000   0.002   0.000   0.002
   43        0.000   0.003   0.000   0.003
   44        0.000   0.002   0.000   0.003
   45        0.000   0.002   0.000   0.002
   46       -0.000   0.001   0.000   0.001
   47        0.000   0.002   0.000   0.002
   48        0.000   0.002   0.000   0.002
   49        0.000   0.003   0.000   0.003
   50        0.000   0.001   0.000   0.001
   51       -0.000   0.001   0.000   0.001
   52        0.000   0.001   0.000   0.002
   53        0.000   0.002   0.000   0.002
   54        0.000   0.002   0.000   0.002
   55       -0.001   0.005   0.000   0.004
   56       -0.000   0.001   0.000   0.001
   57       -0.000   0.003   0.000   0.002
   58       -0.000   0.001   0.000   0.001
   59       -0.000   0.001   0.000   0.001
   60       -0.000   0.002   0.000   0.002
   61       -0.000   0.000   0.000   0.000
   62        0.000   0.001   0.000   0.001
   63        0.000   0.003   0.000   0.003
   64       -0.000   0.000   0.000   0.000
   65        0.000   0.003   0.000   0.003
   66        0.000   0.003   0.000   0.003
   67        0.000   0.001   0.000   0.001
   68        0.000   0.003   0.000   0.003
   69        0.000   0.003   0.000   0.003
   70        0.000   0.005   0.000   0.005
   71        0.000   0.001   0.000   0.001
   72        0.000   0.001   0.000   0.001
   73        0.000   0.008   0.000   0.008
   74        0.000   0.002   0.000   0.002
   75        0.012   0.147   0.000   0.159
   76       -0.000  -0.000   0.000  -0.000
   77        0.000   0.004   0.000   0.004
   78        0.000   0.005   0.000   0.005
   79        0.001   0.017   0.000   0.019
   80        0.000   0.003   0.000   0.003
   81        0.000   0.002   0.000   0.003
   82        0.001   0.010   0.000   0.011
   83        0.000   0.001   0.000   0.001
   84        0.001   0.021   0.000   0.021
   85        0.000   0.001   0.000   0.001
   86        0.000   0.004   0.000   0.004
   87       -0.000   0.002   0.000   0.001
   88        0.001   0.022   0.000   0.023
   89       -0.000   0.001   0.000   0.001
   90       -0.000   0.000   0.000  -0.000
   91        0.000   0.010   0.000   0.010
   92       -0.000   0.001   0.000   0.001
   93        0.001   0.013   0.000   0.014
   94        0.000   0.002   0.000   0.002
   95        0.000   0.001   0.000   0.001
   96        0.000   0.005   0.000   0.005
   97        0.002   0.016   0.000   0.018
   98        0.000   0.006   0.000   0.006
   99       -0.000   0.000   0.000   0.000
  100       -0.000   0.001   0.000   0.001
  101        0.000   0.001   0.000   0.001
  102       -0.000   0.002   0.000   0.002
  103        0.000   0.002   0.000   0.002
  104        0.000   0.001   0.000   0.001
  105        0.000   0.002   0.000   0.002
  106       -0.000   0.001   0.000   0.001
  107        0.000   0.002   0.000   0.002
  108       -0.000   0.000   0.000   0.000
  109       -0.000   0.000   0.000   0.000
  110       -0.000   0.001   0.000   0.001
  111        0.001   0.022   0.000   0.023
  112       -0.000   0.002   0.000   0.002
  113        0.000   0.004   0.000   0.004
  114        0.000   0.001   0.000   0.001
  115        0.001   0.021   0.000   0.021
  116        0.000   0.001   0.000   0.001
  117        0.001   0.010   0.000   0.011
  118       -0.000   0.000   0.000   0.000
  119        0.000   0.002   0.000   0.002
  120       -0.000   0.002   0.000   0.001
  121        0.000   0.002   0.000   0.002
  122        0.000   0.001   0.000   0.001
  123        0.000   0.002   0.000   0.002
  124       -0.000   0.002   0.000   0.002
  125        0.000   0.001   0.000   0.001
  126        0.000   0.001   0.000   0.001
  127       -0.000   0.000   0.000   0.000
  128        0.000   0.006   0.000   0.006
  129        0.002   0.016   0.000   0.018
  130        0.000   0.005   0.000   0.005
  131        0.000   0.001   0.000   0.001
  132        0.000   0.002   0.000   0.002
  133        0.001   0.012   0.000   0.014
  134       -0.000   0.001   0.000   0.001
  135        0.000   0.010   0.000   0.010
  136        0.012   0.146   0.000   0.158
  137        0.000   0.002   0.000   0.002
  138        0.000   0.008   0.000   0.008
  139        0.000   0.002   0.000   0.003
  140        0.000   0.002   0.000   0.003
  141        0.001   0.017   0.000   0.019
  142        0.000   0.005   0.000   0.005
  143        0.000   0.004   0.000   0.004
  144       -0.000   0.000   0.000   0.000
  145        0.000   0.003   0.000   0.003
  146        0.000   0.003   0.000   0.003
  147       -0.000   0.001   0.000   0.000
  148       -0.000   0.001   0.000   0.001
  149        0.000   0.001   0.000   0.002
  150        0.000   0.005   0.000   0.005
  151        0.000   0.003   0.000   0.003
  152        0.000   0.003   0.000   0.003
  153        0.000   0.001   0.000   0.001
  154       -0.000   0.003   0.000   0.003
  155       -0.000   0.001   0.000   0.001
  156       -0.001   0.005   0.000   0.004
  157        0.000   0.003   0.000   0.003
  158        0.000   0.001   0.000   0.001
  159       -0.000   0.000   0.000   0.000
  160       -0.000   0.002   0.000   0.002
  161       -0.000   0.001   0.000   0.001
  162       -0.000   0.001   0.000   0.001
  163       -0.000   0.001   0.000   0.001
  164        0.000   0.003   0.000   0.003
  165       -0.000   0.001   0.000   0.001
  166       -0.000   0.001   0.000   0.001
  167        0.000   0.009   0.000   0.009
  168        0.000   0.003   0.000   0.003
  169        0.000   0.009   0.000   0.009
  170        0.000   0.001   0.000   0.001
  171       -0.000   0.001   0.000   0.001
  172        0.000   0.002   0.000   0.002
  173        0.000   0.002   0.000   0.002
  174        0.000   0.002   0.000   0.002
  175        0.000   0.002   0.000   0.002
  176       -0.000   0.002   0.000   0.002
  177        0.000   0.003   0.000   0.004
  178       -0.000   0.001   0.000   0.001
  179        0.000   0.001   0.000   0.001
  180       -0.000   0.004   0.000   0.004
  181        0.000   0.002   0.000   0.002
  182        0.001   0.020   0.000   0.022
  183        0.000   0.003   0.000   0.003
  184        0.000   0.002   0.000   0.002
  185        0.000   0.002   0.000   0.003
  186        0.001   0.016   0.000   0.017
  187        0.000   0.002   0.000   0.002
  188       -0.000   0.001   0.000   0.001
  189        0.011   0.120   0.000   0.130
  190        0.000   0.004   0.000   0.004
  191        0.000   0.004   0.000   0.004
  192        0.000   0.001   0.000   0.001
  193        0.000   0.003   0.000   0.003
  194        0.000   0.004   0.000   0.004
  195        0.000   0.011   0.000   0.012
  196        0.002   0.020   0.000   0.021
  197       -0.000  -0.000   0.000  -0.000
  198        0.000   0.003   0.000   0.003
  199       -0.000   0.001   0.000   0.000
  200        0.000   0.002   0.000   0.002
  201        0.000   0.003   0.000   0.003
  202        0.000   0.001   0.000   0.001
  203        0.000   0.002   0.000   0.002
  204       -0.000   0.001   0.000   0.001
  205        0.000   0.006   0.000   0.006
  206        0.000   0.001   0.000   0.001
  207       -0.000   0.006   0.000   0.006
  208        0.000   0.002   0.000   0.002
  209       -0.000   0.002   0.000   0.002
  210       -0.000   0.001   0.000   0.001
  211        0.000   0.001   0.000   0.001
  212       -0.000   0.001   0.000   0.001
  213       -0.001   0.004   0.000   0.003
  214       -0.000   0.000   0.000   0.000
  215       -0.000   0.001   0.000   0.001
--------------------------------------------------
tot          0.063   1.361   0.000   1.423
 

 total amount of memory used by VASP MPI-rank0    40004. kBytes
=======================================================================

   base      :      30000. kBytes
   nonlr-proj:       3647. kBytes
   fftplans  :       1350. kBytes
   grid      :       3557. kBytes
   one-center:         43. kBytes
   HF        :          9. kBytes
   wavefun   :       1398. kBytes
 
  
  
 General timing and accounting informations for this job:
 ========================================================
  
                  Total CPU time used (sec):     2040.863
                            User time (sec):     2036.195
                          System time (sec):        4.668
                         Elapsed time (sec):     2042.532
  
                   Maximum memory used (kb):      415984.
                   Average memory used (kb):           0.
  
                          Minor page faults:        93643
                          Major page faults:          335
                 Voluntary context switches:          855
