 vasp.5.4.4.18Apr17-6-g9f103f2a35 (build Jun 14 2024 12:30:39) gamma-only        
 executed on NVIDIA22.7_CrayMPICH date 2025.05.06  17:46:18
 running on  512 total cores
 distrk:  each k-point on  512 cores,    1 groups
 distr:  one band on NCORES_PER_BAND=  16 cores,   32 groups


--------------------------------------------------------------------------------------------------------


 INCAR:
 POTCAR:   PAW_PBE Si 05Jan2001                   
 POTCAR:   PAW_PBE C 08Apr2002                    
 POTCAR:   PAW_PBE Si 05Jan2001                   
   VRHFIN =Si: s2p2                                                             
   LEXCH  = PE                                                                  
   EATOM  =   103.0669 eV,    7.5752 Ry                                         
                                                                                
   TITEL  = PAW_PBE Si 05Jan2001                                                
   LULTRA =        F    use ultrasoft PP ?                                      
   IUNSCR =        1    unscreen: 0-lin 1-nonlin 2-no                           
   RPACOR =    1.500    partial core radius                                     
   POMASS =   28.085; ZVAL   =    4.000    mass and valenz                      
   RCORE  =    1.900    outmost cutoff radius                                   
   RWIGS  =    2.480; RWIGS  =    1.312    wigner-seitz radius (au A)           
   ENMAX  =  245.345; ENMIN  =  184.009 eV                                      
   ICORE  =        2    local potential                                         
   LCOR   =        T    correct aug charges                                     
   LPAW   =        T    paw PP                                                  
   EAUG   =  322.069                                                            
   DEXC   =    -.007                                                            
   RMAX   =    2.944    core radius for proj-oper                               
   RAUG   =    1.300    factor for augmentation sphere                          
   RDEP   =    1.993    radius for radial grids                                 
   QCUT   =   -4.246; QGAM   =    8.493    optimization parameters              
                                                                                
   Description                                                                  
     l     E      TYP  RCUT    TYP  RCUT                                        
     0   .000     23  1.900                                                     
     0   .000     23  1.900                                                     
     1   .000     23  1.900                                                     
     1   .000     23  1.900                                                     
     2   .000      7  1.900                                                     
  local pseudopotential read in
  partial core-charges read in
  atomic valenz-charges read in
  non local Contribution for L=            0  read in
    real space projection operators read in
  non local Contribution for L=            0  read in
    real space projection operators read in
  non local Contribution for L=            1  read in
    real space projection operators read in
  non local Contribution for L=            1  read in
    real space projection operators read in
    PAW grid and wavefunctions read in
 
   number of l-projection  operators is LMAX  =            4
   number of lm-projection operators is LMMAX =            8
 
 POTCAR:   PAW_PBE C 08Apr2002                    
   VRHFIN =C: s2p2                                                              
   LEXCH  = PE                                                                  
   EATOM  =   147.1560 eV,   10.8157 Ry                                         
                                                                                
   TITEL  = PAW_PBE C 08Apr2002                                                 
   LULTRA =        F    use ultrasoft PP ?                                      
   IUNSCR =        0    unscreen: 0-lin 1-nonlin 2-no                           
   RPACOR =     .000    partial core radius                                     
   POMASS =   12.011; ZVAL   =    4.000    mass and valenz                      
   RCORE  =    1.500    outmost cutoff radius                                   
   RWIGS  =    1.630; RWIGS  =     .863    wigner-seitz radius (au A)           
   ENMAX  =  400.000; ENMIN  =  300.000 eV                                      
   ICORE  =        2    local potential                                         
   LCOR   =        T    correct aug charges                                     
   LPAW   =        T    paw PP                                                  
   EAUG   =  644.873                                                            
   DEXC   =     .000                                                            
   RMAX   =    2.266    core radius for proj-oper                               
   RAUG   =    1.300    factor for augmentation sphere                          
   RDEP   =    1.501    radius for radial grids                                 
   RDEPT  =    1.300    core radius for aug-charge                              
   QCUT   =   -5.516; QGAM   =   11.032    optimization parameters              
                                                                                
   Description                                                                  
     l     E      TYP  RCUT    TYP  RCUT                                        
     0   .000     23  1.200                                                     
     0   .000     23  1.200                                                     
     1   .000     23  1.500                                                     
     1  2.500     23  1.500                                                     
     2   .000      7  1.500                                                     
  local pseudopotential read in
  atomic valenz-charges read in
  non local Contribution for L=            0  read in
    real space projection operators read in
  non local Contribution for L=            0  read in
    real space projection operators read in
  non local Contribution for L=            1  read in
    real space projection operators read in
  non local Contribution for L=            1  read in
    real space projection operators read in
    PAW grid and wavefunctions read in
 
   number of l-projection  operators is LMAX  =            4
   number of lm-projection operators is LMMAX =            8
 
 Optimization of the real space projectors (new method)

 maximal supplied QI-value         = 19.84
 optimisation between [QCUT,QGAM] = [ 10.12, 20.44] = [ 28.68,116.96] Ry 
 Optimized for a Real-space Cutoff    1.38 Angstroem

   l    n(q)    QCUT    max X(q) W(low)/X(q) W(high)/X(q)  e(spline) 
   0      8    10.119     8.708    0.16E-04    0.67E-05    0.60E-08
   0      8    10.119   106.241    0.56E-04    0.11E-03    0.54E-07
   1      8    10.119     5.901    0.16E-04    0.16E-05    0.22E-07
   1      8    10.119    73.241    0.22E-03    0.17E-03    0.18E-06
 Optimization of the real space projectors (new method)

 maximal supplied QI-value         = 25.13
 optimisation between [QCUT,QGAM] = [ 10.05, 20.36] = [ 28.30,116.06] Ry 
 Optimized for a Real-space Cutoff    1.38 Angstroem

   l    n(q)    QCUT    max X(q) W(low)/X(q) W(high)/X(q)  e(spline) 
   0      8    10.053     5.582    0.33E-04    0.15E-04    0.75E-07
   0      8    10.053    69.432    0.23E-03    0.38E-03    0.25E-06
   1      8    10.053     2.780    0.76E-04    0.11E-03    0.15E-06
   1      8    10.053     4.549    0.19E-03    0.19E-03    0.27E-06
 PAW_PBE Si 05Jan2001                   :
 energy of atom  1       EATOM= -103.0669
 kinetic energy error for atom=    0.0012 (will be added to EATOM!!)
 PAW_PBE C 08Apr2002                    :
 energy of atom  2       EATOM= -147.1560
 kinetic energy error for atom=    0.0288 (will be added to EATOM!!)
 
 
 POSCAR: Si1 C214                                
  positions in direct lattice
  velocities in cartesian coordinates
 exchange correlation table for  LEXCH =        8
   RHO(1)=    0.500       N(1)  =     2000
   RHO(2)=  100.500       N(2)  =     4000
 


--------------------------------------------------------------------------------------------------------


 ion  position               nearest neighbor table
   1  0.500  0.500  0.500- 108 1.98 131 1.98  16 1.98  71 1.98 162 1.98 215 1.98
   2  0.041  0.041  0.875-  91 1.54 139 1.54  41 1.54 189 1.54
   3  0.042  0.042  0.208-  92 1.53 140 1.53  42 1.54 190 1.54
   4  0.042  0.042  0.542-  93 1.53 141 1.53 191 1.54  43 1.54
   5  0.041  0.375  0.876-  44 1.53 142 1.53 192 1.54  94 1.54
   6  0.043  0.375  0.209- 143 1.53  45 1.53  95 1.54 193 1.54
   7  0.042  0.375  0.542- 144 1.53 194 1.54  96 1.54  46 1.54
   8  0.041  0.708  0.875- 136 1.53  38 1.53  97 1.54 195 1.54
   9  0.042  0.709  0.208-  39 1.54 137 1.54  98 1.54 196 1.54
  10  0.041  0.709  0.542- 138 1.53 197 1.54  99 1.54  40 1.54
  11  0.375  0.041  0.876-  50 1.53 100 1.53 198 1.54 148 1.54
  12  0.375  0.043  0.209- 101 1.53  51 1.53 149 1.54 199 1.54
  13  0.375  0.042  0.542- 102 1.53 200 1.54 150 1.54  52 1.54
  14  0.375  0.375  0.876-  53 1.53 201 1.54 151 1.54 103 1.54
  15  0.377  0.377  0.211-  54 1.53 104 1.54 152 1.54 202 1.55
  16  0.374  0.374  0.552- 105 1.51 153 1.51 203 1.54   1 1.98
  17  0.374  0.708  0.875- 204 1.53  47 1.54 145 1.54 106 1.54
  18  0.375  0.711  0.206- 107 1.53  48 1.53 205 1.53 146 1.54
  19  0.371  0.711  0.542- 108 1.51 206 1.52 147 1.53  49 1.55
  20  0.708  0.041  0.875-  82 1.53  32 1.53 157 1.54 207 1.54
  21  0.709  0.042  0.208-  33 1.54  83 1.54 158 1.54 208 1.54
  22  0.709  0.041  0.542-  84 1.53 209 1.54 159 1.54  34 1.54
  23  0.708  0.374  0.875- 210 1.53  35 1.54  85 1.54 160 1.54
  24  0.711  0.375  0.206- 161 1.53  36 1.53 211 1.53  86 1.54
  25  0.711  0.371  0.542- 162 1.51 212 1.52  87 1.53  37 1.55
  26  0.707  0.707  0.873-  29 1.53  88 1.54 154 1.54 213 1.55
  27  0.709  0.709  0.207-  30 1.53 214 1.54 155 1.54  89 1.54
  28  0.705  0.705  0.539- 215 1.54 156 1.54  90 1.54  31 1.56
  29  0.791  0.791  0.791-  26 1.53  75 1.53 117 1.53 163 1.54
  30  0.792  0.792  0.124-  27 1.53  73 1.53 115 1.53 164 1.54
  31  0.791  0.791  0.457-  74 1.54 116 1.54 165 1.54  28 1.56
  32  0.792  0.124  0.792-  78 1.53  20 1.53 111 1.53 166 1.54
  33  0.792  0.125  0.125-  21 1.54  76 1.54 109 1.54 167 1.54
  34  0.793  0.124  0.458-  77 1.53 110 1.53 168 1.54  22 1.54
  35  0.791  0.457  0.791-  23 1.54 114 1.54 169 1.54  81 1.56
  36  0.793  0.458  0.124-  24 1.53 112 1.53 170 1.54  79 1.54
  37  0.792  0.458  0.458- 171 1.53 113 1.53  25 1.55  80 1.55
  38  0.124  0.792  0.792- 126 1.53  57 1.53   8 1.53 172 1.54
  39  0.125  0.792  0.125-   9 1.54 124 1.54  55 1.54 173 1.54
  40  0.124  0.793  0.458- 125 1.53  56 1.53 174 1.54  10 1.54
  41  0.125  0.125  0.792-  60 1.54 120 1.54   2 1.54 175 1.54
  42  0.126  0.126  0.126-   3 1.54  58 1.54 118 1.54 176 1.54
  43  0.126  0.126  0.459-  59 1.53 119 1.53 177 1.54   4 1.54
  44  0.124  0.458  0.793- 123 1.53   5 1.53 178 1.54  63 1.54
  45  0.126  0.459  0.126-   6 1.53 121 1.53 179 1.54  61 1.54
  46  0.125  0.459  0.459- 180 1.53 122 1.53   7 1.54  62 1.54
  47  0.457  0.791  0.791-  17 1.54  66 1.54 181 1.54 135 1.56
  48  0.458  0.793  0.124-  18 1.53  64 1.53 182 1.54 133 1.54
  49  0.458  0.792  0.458- 183 1.53  65 1.53 134 1.55  19 1.55
  50  0.458  0.124  0.793-  69 1.53  11 1.53 184 1.54 129 1.54
  51  0.459  0.126  0.126-  12 1.53  67 1.53 185 1.54 127 1.54
  52  0.459  0.125  0.459- 186 1.53  68 1.53  13 1.54 128 1.54
  53  0.458  0.458  0.792- 187 1.53  14 1.53 132 1.55  72 1.55
  54  0.459  0.459  0.125- 188 1.53  15 1.53  70 1.54 130 1.54
  55  0.041  0.875  0.041-  91 1.54 190 1.54  39 1.54 136 1.54
  56  0.041  0.876  0.375-  40 1.53 191 1.53 137 1.54  92 1.54
  57  0.041  0.875  0.708- 189 1.53  38 1.53  93 1.54 138 1.54
  58  0.042  0.208  0.042-  94 1.53 193 1.53  42 1.54 139 1.54
  59  0.043  0.209  0.375- 194 1.53  43 1.53  95 1.54 140 1.54
  60  0.042  0.208  0.709-  41 1.54 192 1.54  96 1.54 141 1.54
  61  0.042  0.542  0.042-  97 1.53 196 1.53 142 1.54  45 1.54
  62  0.042  0.542  0.375- 197 1.53 143 1.54  98 1.54  46 1.54
  63  0.041  0.542  0.709- 195 1.53 144 1.54  99 1.54  44 1.54
  64  0.375  0.876  0.041-  48 1.53 100 1.53 145 1.54 199 1.54
  65  0.375  0.876  0.375-  49 1.53 146 1.54 101 1.54 200 1.54
  66  0.374  0.875  0.708- 147 1.53  47 1.54 198 1.54 102 1.54
  67  0.375  0.209  0.043- 103 1.53  51 1.53 202 1.54 148 1.54
  68  0.377  0.211  0.377-  52 1.53 104 1.54 203 1.54 149 1.55
  69  0.375  0.206  0.711- 105 1.53  50 1.53 150 1.53 201 1.54
  70  0.375  0.542  0.042- 106 1.53 151 1.54 205 1.54  54 1.54
  71  0.374  0.552  0.374- 107 1.51 206 1.51 152 1.54   1 1.98
  72  0.371  0.542  0.711- 108 1.51 153 1.52 204 1.53  53 1.55
  73  0.708  0.875  0.041-  82 1.53  30 1.53 208 1.54 154 1.54
  74  0.708  0.875  0.374- 155 1.53  31 1.54  83 1.54 209 1.54
  75  0.707  0.873  0.707-  29 1.53  84 1.54 207 1.54 156 1.55
  76  0.709  0.208  0.042-  33 1.54  85 1.54 211 1.54 157 1.54
  77  0.711  0.206  0.375- 212 1.53  34 1.53 158 1.53  86 1.54
  78  0.709  0.207  0.709-  32 1.53 159 1.54  87 1.54 210 1.54
  79  0.709  0.542  0.041-  88 1.53 160 1.54 214 1.54  36 1.54
  80  0.711  0.542  0.371- 215 1.51 161 1.52  89 1.53  37 1.55
  81  0.705  0.539  0.705- 162 1.54  90 1.54 213 1.54  35 1.56
  82  0.792  0.958  0.958-  20 1.53  73 1.53 163 1.54 109 1.54
  83  0.792  0.958  0.291- 164 1.54  21 1.54  74 1.54 110 1.54
  84  0.791  0.957  0.625-  22 1.53 165 1.53  75 1.54 111 1.54
  85  0.792  0.291  0.958- 166 1.54  76 1.54  23 1.54 112 1.54
  86  0.793  0.291  0.291- 167 1.53 113 1.54  77 1.54  24 1.54
  87  0.794  0.289  0.625-  25 1.53 168 1.53 114 1.53  78 1.54
  88  0.791  0.625  0.957-  79 1.53 169 1.53  26 1.54 115 1.54
  89  0.794  0.625  0.289-  80 1.53 170 1.53 116 1.53  27 1.54
  90  0.789  0.623  0.623- 171 1.53  81 1.54  28 1.54 117 1.55
  91  0.125  0.959  0.959-  55 1.54   2 1.54 172 1.54 118 1.54
  92  0.125  0.959  0.292-   3 1.53 173 1.53  56 1.54 119 1.54
  93  0.124  0.959  0.625- 174 1.53   4 1.53 120 1.54  57 1.54
  94  0.125  0.292  0.959-  58 1.53 175 1.53   5 1.54 121 1.54
  95  0.127  0.293  0.293- 176 1.53  59 1.54   6 1.54 122 1.55
  96  0.125  0.292  0.626- 123 1.53 177 1.54  60 1.54   7 1.54
  97  0.124  0.625  0.959- 178 1.53  61 1.53 124 1.54   8 1.54
  98  0.125  0.626  0.292- 125 1.53 179 1.54   9 1.54  62 1.54
  99  0.124  0.625  0.625- 180 1.53 126 1.54  10 1.54  63 1.54
 100  0.458  0.958  0.958-  11 1.53  64 1.53 127 1.54 181 1.54
 101  0.458  0.959  0.291-  12 1.53 128 1.54  65 1.54 182 1.54
 102  0.458  0.958  0.625-  13 1.53 129 1.54  66 1.54 183 1.54
 103  0.458  0.291  0.959-  67 1.53 130 1.54  14 1.54 184 1.54
 104  0.461  0.295  0.295- 131 1.54  68 1.54  15 1.54 185 1.56
 105  0.458  0.289  0.629-  16 1.51 132 1.52  69 1.53 186 1.55
 106  0.458  0.625  0.958-  70 1.53 133 1.54  17 1.54 187 1.54
 107  0.458  0.629  0.289-  71 1.51 134 1.52  18 1.53 188 1.55
 108  0.448  0.626  0.626-  19 1.51  72 1.51 135 1.54   1 1.98
 109  0.875  0.041  0.041- 139 1.54 190 1.54  33 1.54  82 1.54
 110  0.876  0.041  0.375-  34 1.53 191 1.53  83 1.54 140 1.54
 111  0.875  0.041  0.708- 189 1.53  32 1.53 141 1.54  84 1.54
 112  0.876  0.375  0.041-  36 1.53 142 1.53  85 1.54 193 1.54
 113  0.876  0.375  0.375-  37 1.53  86 1.54 143 1.54 194 1.54
 114  0.875  0.374  0.708-  87 1.53  35 1.54 192 1.54 144 1.54
 115  0.875  0.708  0.041- 136 1.53  30 1.53 196 1.54  88 1.54
 116  0.875  0.708  0.374-  89 1.53  31 1.54 137 1.54 197 1.54
 117  0.873  0.707  0.707-  29 1.53 138 1.54 195 1.54  90 1.55
 118  0.208  0.042  0.042- 148 1.53 199 1.53  42 1.54  91 1.54
 119  0.209  0.043  0.375- 200 1.53  43 1.53 149 1.54  92 1.54
 120  0.208  0.042  0.709-  41 1.54 198 1.54 150 1.54  93 1.54
 121  0.209  0.375  0.043- 151 1.53  45 1.53 202 1.54  94 1.54
 122  0.211  0.377  0.377-  46 1.53 152 1.54 203 1.54  95 1.55
 123  0.206  0.375  0.711- 153 1.53  44 1.53  96 1.53 201 1.54
 124  0.208  0.709  0.042-  39 1.54 145 1.54 205 1.54  97 1.54
 125  0.206  0.711  0.375- 206 1.53  40 1.53  98 1.53 146 1.54
 126  0.207  0.709  0.709-  38 1.53  99 1.54 147 1.54 204 1.54
 127  0.542  0.042  0.042- 157 1.53 208 1.53 100 1.54  51 1.54
 128  0.542  0.042  0.375- 209 1.53 101 1.54 158 1.54  52 1.54
 129  0.542  0.041  0.709- 207 1.53 102 1.54 159 1.54  50 1.54
 130  0.542  0.375  0.042- 160 1.53 103 1.54 211 1.54  54 1.54
 131  0.552  0.374  0.374- 161 1.51 212 1.51 104 1.54   1 1.98
 132  0.542  0.371  0.711- 162 1.51 105 1.52 210 1.53  53 1.55
 133  0.542  0.709  0.041- 154 1.53 106 1.54 214 1.54  48 1.54
 134  0.542  0.711  0.371- 215 1.51 107 1.52 155 1.53  49 1.55
 135  0.539  0.705  0.705- 108 1.54 156 1.54 213 1.54  47 1.56
 136  0.958  0.792  0.958-   8 1.53 115 1.53 163 1.54  55 1.54
 137  0.958  0.792  0.291- 164 1.54   9 1.54 116 1.54  56 1.54
 138  0.957  0.791  0.625-  10 1.53 165 1.53 117 1.54  57 1.54
 139  0.959  0.125  0.959- 109 1.54   2 1.54 166 1.54  58 1.54
 140  0.959  0.125  0.292-   3 1.53 167 1.53 110 1.54  59 1.54
 141  0.959  0.124  0.625- 168 1.53   4 1.53  60 1.54 111 1.54
 142  0.958  0.458  0.958-   5 1.53 112 1.53  61 1.54 169 1.54
 143  0.959  0.458  0.291-   6 1.53  62 1.54 113 1.54 170 1.54
 144  0.958  0.458  0.625-   7 1.53  63 1.54 114 1.54 171 1.54
 145  0.291  0.792  0.958- 172 1.54 124 1.54  17 1.54  64 1.54
 146  0.291  0.793  0.291- 173 1.53  65 1.54 125 1.54  18 1.54
 147  0.289  0.794  0.625-  19 1.53 174 1.53  66 1.53 126 1.54
 148  0.292  0.125  0.959- 118 1.53 175 1.53  11 1.54  67 1.54
 149  0.293  0.127  0.293- 176 1.53 119 1.54  12 1.54  68 1.55
 150  0.292  0.125  0.626-  69 1.53 177 1.54 120 1.54  13 1.54
 151  0.291  0.458  0.959- 121 1.53  70 1.54  14 1.54 178 1.54
 152  0.295  0.461  0.295-  71 1.54  15 1.54 122 1.54 179 1.56
 153  0.289  0.458  0.629-  16 1.51  72 1.52 123 1.53 180 1.55
 154  0.625  0.791  0.957- 133 1.53 181 1.53  26 1.54  73 1.54
 155  0.625  0.794  0.289- 134 1.53 182 1.53  74 1.53  27 1.54
 156  0.623  0.789  0.623- 183 1.53 135 1.54  28 1.54  75 1.55
 157  0.625  0.124  0.959- 184 1.53 127 1.53  76 1.54  20 1.54
 158  0.626  0.125  0.292-  77 1.53 185 1.54  21 1.54 128 1.54
 159  0.625  0.124  0.625- 186 1.53  78 1.54 129 1.54  22 1.54
 160  0.625  0.458  0.958- 130 1.53  79 1.54  23 1.54 187 1.54
 161  0.629  0.458  0.289- 131 1.51  80 1.52  24 1.53 188 1.55
 162  0.626  0.448  0.626- 132 1.51  25 1.51  81 1.54   1 1.98
 163  0.874  0.874  0.874-  82 1.54 136 1.54 189 1.54  29 1.54
 164  0.875  0.875  0.208-  83 1.54 137 1.54 190 1.54  30 1.54
 165  0.874  0.874  0.541-  84 1.53 138 1.53  31 1.54 191 1.54
 166  0.875  0.208  0.875-  85 1.54 192 1.54 139 1.54  32 1.54
 167  0.876  0.208  0.208-  86 1.53 140 1.53 193 1.53  33 1.54
 168  0.876  0.207  0.542-  87 1.53 141 1.53  34 1.54 194 1.54
 169  0.874  0.541  0.874-  88 1.53 195 1.53  35 1.54 142 1.54
 170  0.876  0.542  0.207-  89 1.53 196 1.53  36 1.54 143 1.54
 171  0.875  0.541  0.541-  37 1.53  90 1.53 144 1.54 197 1.54
 172  0.208  0.875  0.875- 198 1.54 145 1.54  91 1.54  38 1.54
 173  0.208  0.876  0.208- 146 1.53  92 1.53 199 1.53  39 1.54
 174  0.207  0.876  0.542- 147 1.53  93 1.53  40 1.54 200 1.54
 175  0.208  0.208  0.876- 201 1.53 148 1.53  94 1.53  41 1.54
 176  0.209  0.209  0.209-  95 1.53 149 1.53 202 1.53  42 1.54
 177  0.209  0.209  0.543-  96 1.54 150 1.54  43 1.54 203 1.56
 178  0.207  0.542  0.876- 204 1.53  97 1.53  44 1.54 151 1.54
 179  0.209  0.543  0.209-  98 1.54 205 1.54  45 1.54 152 1.56
 180  0.208  0.542  0.542-  46 1.53  99 1.53 153 1.55 206 1.55
 181  0.541  0.874  0.874- 154 1.53 207 1.53  47 1.54 100 1.54
 182  0.542  0.876  0.207- 155 1.53 208 1.53  48 1.54 101 1.54
 183  0.541  0.875  0.541-  49 1.53 156 1.53 209 1.54 102 1.54
 184  0.542  0.207  0.876- 210 1.53 157 1.53  50 1.54 103 1.54
 185  0.543  0.209  0.209- 158 1.54 211 1.54  51 1.54 104 1.56
 186  0.542  0.208  0.542-  52 1.53 159 1.53 105 1.55 212 1.55
 187  0.541  0.541  0.875-  53 1.53 213 1.53 160 1.54 106 1.54
 188  0.542  0.542  0.208-  54 1.53 214 1.53 161 1.55 107 1.55
 189  0.958  0.958  0.792-  57 1.53 111 1.53 163 1.54   2 1.54
 190  0.959  0.959  0.125-  55 1.54 109 1.54 164 1.54   3 1.54
 191  0.958  0.958  0.458-  56 1.53 110 1.53   4 1.54 165 1.54
 192  0.958  0.291  0.792- 166 1.54  60 1.54 114 1.54   5 1.54
 193  0.959  0.292  0.125-  58 1.53 167 1.53 112 1.54   6 1.54
 194  0.959  0.291  0.458-  59 1.53   7 1.54 113 1.54 168 1.54
 195  0.957  0.625  0.791-  63 1.53 169 1.53 117 1.54   8 1.54
 196  0.959  0.625  0.124- 170 1.53  61 1.53   9 1.54 115 1.54
 197  0.958  0.625  0.458-  62 1.53  10 1.54 116 1.54 171 1.54
 198  0.291  0.958  0.792- 172 1.54 120 1.54  66 1.54  11 1.54
 199  0.292  0.959  0.125- 118 1.53 173 1.53  64 1.54  12 1.54
 200  0.291  0.959  0.458- 119 1.53  13 1.54  65 1.54 174 1.54
 201  0.291  0.291  0.793- 175 1.53  14 1.54 123 1.54  69 1.54
 202  0.293  0.293  0.127- 176 1.53 121 1.54  67 1.54  15 1.55
 203  0.295  0.295  0.461-  16 1.54  68 1.54 122 1.54 177 1.56
 204  0.289  0.625  0.794-  72 1.53 178 1.53  17 1.53 126 1.54
 205  0.292  0.626  0.125-  18 1.53 179 1.54 124 1.54  70 1.54
 206  0.289  0.629  0.458-  71 1.51  19 1.52 125 1.53 180 1.55
 207  0.625  0.957  0.791- 129 1.53 181 1.53  75 1.54  20 1.54
 208  0.625  0.959  0.124- 182 1.53 127 1.53  21 1.54  73 1.54
 209  0.625  0.958  0.458- 128 1.53  22 1.54  74 1.54 183 1.54
 210  0.625  0.289  0.794- 132 1.53 184 1.53  23 1.53  78 1.54
 211  0.626  0.292  0.125-  24 1.53 185 1.54  76 1.54 130 1.54
 212  0.629  0.289  0.458- 131 1.51  25 1.52  77 1.53 186 1.55
 213  0.623  0.623  0.789- 187 1.53 135 1.54  81 1.54  26 1.55
 214  0.625  0.625  0.124- 188 1.53  27 1.54 133 1.54  79 1.54
 215  0.626  0.626  0.448-  80 1.51 134 1.51  28 1.54   1 1.98
 

IMPORTANT INFORMATION: All symmetrisations will be switched off!
NOSYMM: (Re-)initialisation of all symmetry stuff for point group C_1.

 
 
 KPOINTS: pymatgen v1.1 with grid density = 2210 /

Automatic generation of k-mesh.
Space group operators:
 irot       det(A)        alpha          n_x          n_y          n_z        tau_x        tau_y        tau_z
    1     1.000000     0.000001     1.000000     0.000000     0.000000     0.000000     0.000000     0.000000
 
 Subroutine IBZKPT returns following result:
 ===========================================
 
 Found      1 irreducible k-points:
 
 Following reciprocal coordinates:
            Coordinates               Weight
  0.000000  0.000000  0.000000      1.000000
 
 Following cartesian coordinates:
            Coordinates               Weight
  0.000000  0.000000  0.000000      1.000000
 
 
 Subroutine IBZKPT_HF returns following result:
 ==============================================
 
 Found      1 k-points in 1st BZ
 the following      1 k-points will be used (e.g. in the exchange kernel)
 Following reciprocal coordinates:   # in IRBZ
  0.000000  0.000000  0.000000    1.00000000   1 t-inv F

 ----------------------------------------------------------------------------- 
|                                                                             |
|           W    W    AA    RRRRR   N    N  II  N    N   GGGG   !!!           |
|           W    W   A  A   R    R  NN   N  II  NN   N  G    G  !!!           |
|           W    W  A    A  R    R  N N  N  II  N N  N  G       !!!           |
|           W WW W  AAAAAA  RRRRR   N  N N  II  N  N N  G  GGG   !            |
|           WW  WW  A    A  R   R   N   NN  II  N   NN  G    G                |
|           W    W  A    A  R    R  N    N  II  N    N   GGGG   !!!           |
|                                                                             |
|      The number of bands has been changed from the values supplied          |
|      in the INCAR file. This is a result of running the parallel version.   |
|      The orbitals not found in the WAVECAR file will be initialized with    |
|      random numbers, which is usually adequate. For correlated              |
|      calculations, however, you should redo the groundstate calculation.    |
|      I found NBANDS    =      450  now  NBANDS  =     480                   |
|                                                                             |
 ----------------------------------------------------------------------------- 



--------------------------------------------------------------------------------------------------------




 Dimension of arrays:
   k-points           NKPTS =      1   k-points in BZ     NKDIM =      1   number of bands    NBANDS=    480
   number of dos      NEDOS =    301   number of ions     NIONS =    215
   non local maximal  LDIM  =      4   non local SUM 2l+1 LMDIM =      8
   total plane-waves  NPLWV = 343000
   max r-space proj   IRMAX =   3182   max aug-charges    IRDMAX=   9703
   dimension x,y,z NGX =    70 NGY =   70 NGZ =   70
   dimension x,y,z NGXF=   140 NGYF=  140 NGZF=  140
   support grid    NGXF=   140 NGYF=  140 NGZF=  140
   ions per type =               1 214
   NGX,Y,Z   is equivalent  to a cutoff of  10.93, 10.93, 10.93 a.u.
   NGXF,Y,Z  is equivalent  to a cutoff of  21.86, 21.86, 21.86 a.u.

 SYSTEM =  unknown system                          
 POSCAR =  Si1 C214                                

 Startparameter for this run:
   NWRITE =      2    write-flag & timer
   PREC   = accura    normal or accurate (medium, high low for compatibility)
   ISTART =      0    job   : 0-new  1-cont  2-samecut
   ICHARG =      2    charge: 1-file 2-atom 10-const
   ISPIN  =      2    spin polarized calculation?
   LNONCOLLINEAR =      F non collinear calculations
   LSORBIT =      F    spin-orbit coupling
   INIWAV =      1    electr: 0-lowe 1-rand  2-diag
   LASPH  =      F    aspherical Exc in radial PAW
   METAGGA=      F    non-selfconsistent MetaGGA calc.

 Electronic Relaxation 1
   ENCUT  =  400.0 eV  29.40 Ry    5.42 a.u.  17.36 17.36 17.36*2*pi/ulx,y,z
   ENINI  =  400.0     initial cutoff
   ENAUG  =  644.9 eV  augmentation charge cutoff
   NELM   =    100;   NELMIN=  2; NELMDL=  0     # of ELM steps 
   EDIFF  = 0.1E-04   stopping-criterion for ELM
   LREAL  =      T    real-space projection
   NLSPLINE    = F    spline interpolate recip. space projectors
   LCOMPAT=      F    compatible to vasp.4.4
   GGA_COMPAT  = T    GGA compatible to vasp.4.4-vasp.4.6
   LMAXPAW     = -100 max onsite density
   LMAXMIX     =    2 max onsite mixed and CHGCAR
   VOSKOWN=      0    Vosko Wilk Nusair interpolation
   ROPT   =   -0.00025  -0.00025
 Ionic relaxation
   EDIFFG = -.1E-01   stopping-criterion for IOM
   NSW    =     99    number of steps for IOM
   NBLOCK =      1;   KBLOCK =     99    inner block; outer block 
   IBRION =      1    ionic relax: 0-MD 1-quasi-New 2-CG
   NFREE  =      0    steps in history (QN), initial steepest desc. (CG)
   ISIF   =      2    stress and relaxation
   IWAVPR =     11    prediction:  0-non 1-charg 2-wave 3-comb
   ISYM   =      0    0-nonsym 1-usesym 2-fastsym
   LCORR  =      T    Harris-Foulkes like correction to forces

   POTIM  = 0.5000    time-step for ionic-motion
   TEIN   =    0.0    initial temperature
   TEBEG  =    0.0;   TEEND  =   0.0 temperature during run
   SMASS  =  -3.00    Nose mass-parameter (am)
   estimated Nose-frequenzy (Omega)   =  0.10E-29 period in steps =****** mass=  -0.259E-26a.u.
   SCALEE = 1.0000    scale energy and forces
   NPACO  =    256;   APACO  = 16.0  distance and # of slots for P.C.
   PSTRESS=    0.0 pullay stress

  Mass of Ions in am
   POMASS =  28.09 12.01
  Ionic Valenz
   ZVAL   =   4.00  4.00
  Atomic Wigner-Seitz radii
   RWIGS  =  -1.00 -1.00
  virtual crystal weights 
   VCA    =   1.00  1.00
   NELECT =     860.0000    total number of electrons
   NUPDOWN=       2.0000    fix difference up-down

 DOS related values:
   EMIN   =  10.00;   EMAX   =-10.00  energy-range for DOS
   EFERMI =   0.00
   ISMEAR =    -2;   SIGMA  =   0.05  broadening in eV -4-tet -1-fermi 0-gaus

 Electronic relaxation 2 (details)
   IALGO  =     58    algorithm
   LDIAG  =      F    sub-space diagonalisation (order eigenvalues)
   LSUBROT=      F    optimize rotation matrix (better conditioning)
   TURBO    =      0    0=normal 1=particle mesh
   IRESTART =      0    0=no restart 2=restart with 2 vectors
   NREBOOT  =      0    no. of reboots
   NMIN     =      0    reboot dimension
   EREF     =   0.00    reference energy to select bands
   IMIX   =      4    mixing-type and parameters
     AMIX     =   0.40;   BMIX     =  1.00
     AMIX_MAG =   1.60;   BMIX_MAG =  1.00
     AMIN     =   0.10
     WC   =   100.;   INIMIX=   1;  MIXPRE=   1;  MAXMIX= -45

 Intra band minimization:
   WEIMIN = 0.0010     energy-eigenvalue tresh-hold
   EBREAK =  0.52E-08  absolut break condition
   DEPER  =   0.30     relativ break condition  

   TIME   =   0.40     timestep for ELM

  volume/ion in A,a.u.               =       5.61        37.87
  Fermi-wavevector in a.u.,A,eV,Ry     =   1.462352  2.763445 29.095711  2.138474
  Thomas-Fermi vector in A             =   2.578576
 
 Write flags
   LWAVE        =      T    write WAVECAR
   LDOWNSAMPLE  =      F    k-point downsampling of WAVECAR
   LCHARG       =      F    write CHGCAR
   LVTOT        =      F    write LOCPOT, total local potential
   LVHAR        =      F    write LOCPOT, Hartree potential only
   LELF         =      F    write electronic localiz. function (ELF)
   LORBIT       =     11    0 simple, 1 ext, 2 COOP (PROOUT), +10 PAW based schemes


 Dipole corrections
   LMONO  =      F    monopole corrections only (constant potential shift)
   LDIPOL =      F    correct potential (dipole corrections)
   IDIPOL =      0    1-x, 2-y, 3-z, 4-all directions 
   EPSILON=  1.0000000 bulk dielectric constant

 Exchange correlation treatment:
   GGA     =    --    GGA type
   LEXCH   =     8    internal setting for exchange type
   VOSKOWN=      0    Vosko Wilk Nusair interpolation
   EXXOEP  =     0    0=HF, 1=EXX-LHF (local Hartree Fock) 2=EXX OEP
   LHFCALC =     T    Hartree Fock is set to
   LSYMGRAD=     F    symmetrize gradient (conserves proper symmetry)
   PRECFOCK=fast      Normal, Fast or Accurate (Low or Medium for compatibility)
   LRHFCALC=     F    long range Hartree Fock
   LRSCOR  =     F    long range correlation only (use DFT for short range part)
   LTHOMAS =     F    Thomas Fermi screening in HF
   LMODELHF=     F    short range full HF, long range fraction AEXX
   ENCUT4O =  -1.0   cutoff for four orbital integrals eV
   LMAXFOCK=     4    L truncation for augmentation on plane wave grid
   LMAXFOCKAE=  -1    L truncation for all-electron charge restoration on plane wave grid
   NMAXFOCKAE=   1    number of basis functions for all-electron charge restoration
   LFOCKAEDFT=     F  apply the AE augmentation even for DFT
   NKREDX  =     1    reduce k-point grid by
   NKREDY  =     1    reduce k-point grid by
   NKREDZ  =     1    reduce k-point grid by
   SHIFTRED=     F    shift reduced grid of Gamma
   HFKIDENT=     F    idential grid for each k-point
   ODDONLY =     F    use only odd q-grid points
   EVENONLY=     F    use only even q-grid points
   HFALPHA =   -1.0000 decay constant for conv. correction
   MCALPHA =    0.0000 extent of test-charge in conv. correction in multipole expansion
   AEXX    =    0.2500 exact exchange contribution
   HFSCREEN=    0.2000 screening length (either q_TF or 0.3 A-1)
   HFSCREENC=   0.2000 screening length for correlation (either q_TF or 0.3 A-1)
   HFRCUT  =    0.0000 spherical cutoff for potential kernel
   ALDAX   =    0.7500 LDA exchange part
   AGGAX   =    0.7500 GGA exchange part
   ALDAC   =    1.0000 LDA correlation
   AGGAC   =    1.0000 GGA correlation
   ENCUTFOCK=  -1.0 apply spherical cutoff to Coloumb kernel
   NBANDSGWLOW=     1    first orbital included in HF term
   NBLOCK_FOCK=    64    blocking factor in FOCK_ACC
 Linear response parameters
   LEPSILON=     F    determine dielectric tensor
   LRPA    =     F    only Hartree local field effects (RPA)
   LNABLA  =     F    use nabla operator in PAW spheres
   LVEL    =     F    velocity operator in full k-point grid
   LINTERFAST=   F  fast interpolation
   KINTER  =     0    interpolate to denser k-point grid
   CSHIFT  =0.1000    complex shift for real part using Kramers Kronig
   OMEGAMAX=  -1.0    maximum frequency
   DEG_THRESHOLD= 0.2000000E-02 threshold for treating states as degnerate
   RTIME   =   -0.100 relaxation time in fs
  (WPLASMAI=    0.000 imaginary part of plasma frequency in eV, 0.658/RTIME)
   DFIELD  = 0.0000000 0.0000000 0.0000000 field for delta impulse in time
 
 Orbital magnetization related:
   ORBITALMAG=     F  switch on orbital magnetization
   LCHIMAG   =     F  perturbation theory with respect to B field
   DQ        =  0.001000  dq finite difference perturbation B field
   LLRAUG    =     F  two centre corrections for induced B field



--------------------------------------------------------------------------------------------------------


 quasi-Newton-method for relaxation of ions
 charge density and potential will be updated during run
 spin polarized calculation
 Conjugate gradient for all bands (Kresse, et al. variant)
 preconditioned conjugated gradient                                        
 perform Loewdin sub-space diagonalisation
    ordering is kept fixed
    before iterative eigenvector-optimisation
 modified Broyden-mixing scheme, WC =      100.0
 initial mixing is a Kerker type mixing with AMIX =  0.4000 and BMIX =      1.0000
 Hartree-type preconditioning will be used
 using additional bands            50
 real space projection scheme for non local part
 use partial core corrections
 no Harris-corrections to forces 
 use gradient corrections 
 use of overlap-Matrix (Vanderbilt PP)
 partial occupancies read from INCAR or WAVECAR (fixed during run)


--------------------------------------------------------------------------------------------------------


  energy-cutoff  :      400.00
  volume of cell :     1206.61
      direct lattice vectors                 reciprocal lattice vectors
    10.646061000  0.000000000  0.000000000     0.093931455  0.000000000  0.000000000
     0.000000000 10.646061000  0.000000000     0.000000000  0.093931455  0.000000000
     0.000000000  0.000000000 10.646061000     0.000000000  0.000000000  0.093931455

  length of vectors
    10.646061000 10.646061000 10.646061000     0.093931455  0.093931455  0.093931455


 
 k-points in units of 2pi/SCALE and weight: pymatgen v1.1 with grid density = 2210 /
   0.00000000  0.00000000  0.00000000       1.000
 
 k-points in reciprocal lattice and weights: pymatgen v1.1 with grid density = 2210 /
   0.00000000  0.00000000  0.00000000       1.000
 
 position of ions in fractional coordinates (direct lattice) 
   0.50000000  0.50000000  0.50000000
   0.04143262  0.04143262  0.87512716
   0.04213660  0.04213660  0.20839857
   0.04172565  0.04172565  0.54184528
   0.04133393  0.37476330  0.87580341
   0.04281180  0.37536780  0.20891649
   0.04187990  0.37505469  0.54196719
   0.04073475  0.70821089  0.87471631
   0.04151328  0.70876322  0.20784998
   0.04088282  0.70850032  0.54154237
   0.37476330  0.04133393  0.87580341
   0.37536780  0.04281180  0.20891649
   0.37505469  0.04187990  0.54196719
   0.37468814  0.37468814  0.87583578
   0.37692597  0.37692597  0.21062876
   0.37382265  0.37382265  0.55210728
   0.37415446  0.70834830  0.87522748
   0.37458742  0.71061246  0.20625540
   0.37114630  0.71090217  0.54180397
   0.70821089  0.04073475  0.87471631
   0.70876322  0.04151328  0.20784998
   0.70850032  0.04088282  0.54154237
   0.70834830  0.37415446  0.87522748
   0.71061246  0.37458742  0.20625540
   0.71090217  0.37114630  0.54180397
   0.70719598  0.70719598  0.87323246
   0.70879453  0.70879453  0.20710448
   0.70523373  0.70523373  0.53908905
   0.79060277  0.79060277  0.79060277
   0.79182437  0.79182437  0.12396081
   0.79093238  0.79093238  0.45717231
   0.79182437  0.12396081  0.79182437
   0.79220069  0.12491877  0.12491877
   0.79294670  0.12375325  0.45829113
   0.79093238  0.45717231  0.79093238
   0.79294670  0.45829113  0.12375325
   0.79228426  0.45769062  0.45769062
   0.12396081  0.79182437  0.79182437
   0.12491877  0.79220069  0.12491877
   0.12375325  0.79294670  0.45829113
   0.12491877  0.12491877  0.79220069
   0.12564623  0.12564623  0.12564623
   0.12576103  0.12576103  0.45882730
   0.12375325  0.45829113  0.79294670
   0.12576103  0.45882730  0.12576103
   0.12545774  0.45899307  0.45899307
   0.45717231  0.79093238  0.79093238
   0.45829113  0.79294670  0.12375325
   0.45769062  0.79228426  0.45769062
   0.45829113  0.12375325  0.79294670
   0.45882730  0.12576103  0.12576103
   0.45899307  0.12545774  0.45899307
   0.45769062  0.45769062  0.79228426
   0.45899307  0.45899307  0.12545774
   0.04143262  0.87512716  0.04143262
   0.04133393  0.87580341  0.37476330
   0.04073475  0.87471631  0.70821089
   0.04213660  0.20839857  0.04213660
   0.04281180  0.20891649  0.37536780
   0.04151328  0.20784998  0.70876322
   0.04172565  0.54184528  0.04172565
   0.04187990  0.54196719  0.37505469
   0.04088282  0.54154237  0.70850032
   0.37476330  0.87580341  0.04133393
   0.37468814  0.87583578  0.37468814
   0.37415446  0.87522748  0.70834830
   0.37536780  0.20891649  0.04281180
   0.37692597  0.21062876  0.37692597
   0.37458742  0.20625540  0.71061246
   0.37505469  0.54196719  0.04187990
   0.37382265  0.55210728  0.37382265
   0.37114630  0.54180397  0.71090217
   0.70821089  0.87471631  0.04073475
   0.70834830  0.87522748  0.37415446
   0.70719598  0.87323246  0.70719598
   0.70876322  0.20784998  0.04151328
   0.71061246  0.20625540  0.37458742
   0.70879453  0.20710448  0.70879453
   0.70850032  0.54154237  0.04088282
   0.71090217  0.54180397  0.37114630
   0.70523373  0.53908905  0.70523373
   0.79160143  0.95786340  0.95786340
   0.79215002  0.95848672  0.29123678
   0.79108351  0.95718820  0.62463220
   0.79215002  0.29123678  0.95848672
   0.79289552  0.29120547  0.29120547
   0.79374460  0.28938754  0.62541258
   0.79108351  0.62463220  0.95718820
   0.79374460  0.62541258  0.28938754
   0.78937124  0.62307403  0.62307403
   0.12487284  0.95856738  0.95856738
   0.12528369  0.95926525  0.29178911
   0.12419659  0.95866607  0.62523670
   0.12528369  0.29178911  0.95926525
   0.12676754  0.29280402  0.29280402
   0.12477252  0.29165170  0.62584554
   0.12419659  0.62523670  0.95866607
   0.12477252  0.62584554  0.29165170
   0.12416422  0.62531186  0.62531186
   0.45815472  0.95827435  0.95827435
   0.45845763  0.95911718  0.29149968
   0.45803281  0.95812010  0.62494531
   0.45845763  0.29149968  0.95911718
   0.46091095  0.29476627  0.29476627
   0.45819603  0.28909783  0.62885370
   0.45803281  0.62494531  0.95812010
   0.45819603  0.62885370  0.28909783
   0.44789272  0.62617735  0.62617735
   0.87512716  0.04143262  0.04143262
   0.87580341  0.04133393  0.37476330
   0.87471631  0.04073475  0.70821089
   0.87580341  0.37476330  0.04133393
   0.87583578  0.37468814  0.37468814
   0.87522748  0.37415446  0.70834830
   0.87471631  0.70821089  0.04073475
   0.87522748  0.70834830  0.37415446
   0.87323246  0.70719598  0.70719598
   0.20839857  0.04213660  0.04213660
   0.20891649  0.04281180  0.37536780
   0.20784998  0.04151328  0.70876322
   0.20891649  0.37536780  0.04281180
   0.21062876  0.37692597  0.37692597
   0.20625540  0.37458742  0.71061246
   0.20784998  0.70876322  0.04151328
   0.20625540  0.71061246  0.37458742
   0.20710448  0.70879453  0.70879453
   0.54184528  0.04172565  0.04172565
   0.54196719  0.04187990  0.37505469
   0.54154237  0.04088282  0.70850032
   0.54196719  0.37505469  0.04187990
   0.55210728  0.37382265  0.37382265
   0.54180397  0.37114630  0.71090217
   0.54154237  0.70850032  0.04088282
   0.54180397  0.71090217  0.37114630
   0.53908905  0.70523373  0.70523373
   0.95786340  0.79160143  0.95786340
   0.95848672  0.79215002  0.29123678
   0.95718820  0.79108351  0.62463220
   0.95856738  0.12487284  0.95856738
   0.95926525  0.12528369  0.29178911
   0.95866607  0.12419659  0.62523670
   0.95827435  0.45815472  0.95827435
   0.95911718  0.45845763  0.29149968
   0.95812010  0.45803281  0.62494531
   0.29123678  0.79215002  0.95848672
   0.29120547  0.79289552  0.29120547
   0.28938754  0.79374460  0.62541258
   0.29178911  0.12528369  0.95926525
   0.29280402  0.12676754  0.29280402
   0.29165170  0.12477252  0.62584554
   0.29149968  0.45845763  0.95911718
   0.29476627  0.46091095  0.29476627
   0.28909783  0.45819603  0.62885370
   0.62463220  0.79108351  0.95718820
   0.62541258  0.79374460  0.28938754
   0.62307403  0.78937124  0.62307403
   0.62523670  0.12419659  0.95866607
   0.62584554  0.12477252  0.29165170
   0.62531186  0.12416422  0.62531186
   0.62494531  0.45803281  0.95812010
   0.62885370  0.45819603  0.28909783
   0.62617735  0.44789272  0.62617735
   0.87435377  0.87435377  0.87435377
   0.87508123  0.87508123  0.20779931
   0.87423897  0.87423897  0.54117270
   0.87508123  0.20779931  0.87508123
   0.87603919  0.20817563  0.20817563
   0.87624675  0.20705330  0.54170887
   0.87423897  0.54117270  0.87423897
   0.87624675  0.54170887  0.20705330
   0.87454226  0.54100693  0.54100693
   0.20779931  0.87508123  0.87508123
   0.20817563  0.87603919  0.20817563
   0.20705330  0.87624675  0.54170887
   0.20817563  0.20817563  0.87603919
   0.20939723  0.20939723  0.20939723
   0.20906762  0.20906762  0.54282769
   0.20705330  0.54170887  0.87624675
   0.20906762  0.54282769  0.20906762
   0.20771574  0.54230938  0.54230938
   0.54117270  0.87423897  0.87423897
   0.54170887  0.87624675  0.20705330
   0.54100693  0.87454226  0.54100693
   0.54170887  0.20705330  0.87624675
   0.54282769  0.20906762  0.20906762
   0.54230938  0.20771574  0.54230938
   0.54100693  0.54100693  0.87454226
   0.54230938  0.54230938  0.20771574
   0.95786340  0.95786340  0.79160143
   0.95856738  0.95856738  0.12487284
   0.95827435  0.95827435  0.45815472
   0.95848672  0.29123678  0.79215002
   0.95926525  0.29178911  0.12528369
   0.95911718  0.29149968  0.45845763
   0.95718820  0.62463220  0.79108351
   0.95866607  0.62523670  0.12419659
   0.95812010  0.62494531  0.45803281
   0.29123678  0.95848672  0.79215002
   0.29178911  0.95926525  0.12528369
   0.29149968  0.95911718  0.45845763
   0.29120547  0.29120547  0.79289552
   0.29280402  0.29280402  0.12676754
   0.29476627  0.29476627  0.46091095
   0.28938754  0.62541258  0.79374460
   0.29165170  0.62584554  0.12477252
   0.28909783  0.62885370  0.45819603
   0.62463220  0.95718820  0.79108351
   0.62523670  0.95866607  0.12419659
   0.62494531  0.95812010  0.45803281
   0.62541258  0.28938754  0.79374460
   0.62584554  0.29165170  0.12477252
   0.62885370  0.28909783  0.45819603
   0.62307403  0.62307403  0.78937124
   0.62531186  0.62531186  0.12416422
   0.62617735  0.62617735  0.44789272
 
 position of ions in cartesian coordinates  (Angst):
   5.32303050  5.32303050  5.32303050
   0.44109419  0.44109419  9.31665717
   0.44858885  0.44858885  2.21862387
   0.44421380  0.44421380  5.76851786
   0.44004352  3.98975292  9.32385650
   0.45577701  3.99618846  2.22413767
   0.44585600  3.99285514  5.76981575
   0.43366468  7.53965633  9.31228319
   0.44195295  7.54553650  2.21278353
   0.43524095  7.54273768  5.76529305
   3.98975292  0.44004352  9.32385650
   3.99618846  0.45577701  2.22413767
   3.99285514  0.44585600  5.76981575
   3.98895276  3.98895276  9.32420117
   4.01277687  4.01277687  2.24236660
   3.97973869  3.97973869  5.87776782
   3.98327122  7.54111922  9.31772510
   3.98788053  7.56522358  2.19580761
   3.95124615  7.56830787  5.76807810
   7.53965633  0.43366468  9.31228319
   7.54553650  0.44195295  2.21278353
   7.54273768  0.43524095  5.76529305
   7.54111922  3.98327122  9.31772510
   7.56522358  3.98788053  2.19580761
   7.56830787  3.95124615  5.76807810
   7.52885149  7.52885149  9.29648604
   7.54586978  7.54586978  2.20484692
   7.50796128  7.50796128  5.73917495
   8.41680528  8.41680528  8.41680528
   8.42981050  8.42981050  1.31969435
   8.42031440  8.42031440  4.86708425
   8.42981050  1.31969435  8.42981050
   8.43381686  1.32989281  1.32989281
   8.44175897  1.31748465  4.87899533
   8.42031440  4.86708425  8.42031440
   8.44175897  4.87899533  1.31748465
   8.43470660  4.87260221  4.87260221
   1.31969435  8.42981050  8.42981050
   1.32989281  8.43381686  1.32989281
   1.31748465  8.44175897  4.87899533
   1.32989281  1.32989281  8.43381686
   1.33763742  1.33763742  1.33763742
   1.33885956  1.33885956  4.88470347
   1.31748465  4.87899533  8.44175897
   1.33885956  4.88470347  1.33885956
   1.33563073  4.88646822  4.88646822
   4.86708425  8.42031440  8.42031440
   4.87899533  8.44175897  1.31748465
   4.87260221  8.43470660  4.87260221
   4.87899533  1.31748465  8.44175897
   4.88470347  1.33885956  1.33885956
   4.88646822  1.33563073  4.88646822
   4.87260221  4.87260221  8.43470660
   4.88646822  4.88646822  1.33563073
   0.44109419  9.31665717  0.44109419
   0.44004352  9.32385650  3.98975292
   0.43366468  9.31228319  7.53965633
   0.44858885  2.21862387  0.44858885
   0.45577701  2.22413767  3.99618846
   0.44195295  2.21278353  7.54553650
   0.44421380  5.76851786  0.44421380
   0.44585600  5.76981575  3.99285514
   0.43524095  5.76529305  7.54273768
   3.98975292  9.32385650  0.44004352
   3.98895276  9.32420117  3.98895276
   3.98327122  9.31772510  7.54111922
   3.99618846  2.22413767  0.45577701
   4.01277687  2.24236660  4.01277687
   3.98788053  2.19580761  7.56522358
   3.99285514  5.76981575  0.44585600
   3.97973869  5.87776782  3.97973869
   3.95124615  5.76807810  7.56830787
   7.53965633  9.31228319  0.43366468
   7.54111922  9.31772510  3.98327122
   7.52885149  9.29648604  7.52885149
   7.54553650  2.21278353  0.44195295
   7.56522358  2.19580761  3.98788053
   7.54586978  2.20484692  7.54586978
   7.54273768  5.76529305  0.43524095
   7.56830787  5.76807810  3.95124615
   7.50796128  5.73917495  7.50796128
   8.42743713 10.19747215 10.19747215
   8.43327747 10.20410805  3.10052450
   8.42192333 10.19028399  6.64987254
   8.43327747  3.10052450 10.20410805
   8.44121408  3.10019122  3.10019122
   8.45025339  3.08083742  6.65818047
   8.42192333  6.64987254 10.19028399
   8.45025339  6.65818047  3.08083742
   8.40369440  6.63328413  6.63328413
   1.32940383 10.20496681 10.20496681
   1.33377781 10.21239632  3.10640467
   1.32220450 10.20601748  6.65630808
   1.33377781  3.10640467 10.21239632
   1.34957496  3.11720951  3.11720951
   1.32833590  3.10494178  6.66278978
   1.32220450  6.65630808 10.20601748
   1.32833590  6.66278978  3.10494178
   1.32185983  6.65710824  6.65710824
   4.87754314 10.20184720 10.20184720
   4.88076795 10.21082005  3.10332332
   4.87624525 10.20020500  6.65320586
   4.88076795  3.10332332 10.21082005
   4.90688605  3.13809972  3.13809972
   4.87798290  3.07775313  6.69481485
   4.87624525  6.65320586 10.20020500
   4.87798290  6.69481485  3.07775313
   4.76829318  6.66632231  6.66632231
   9.31665717  0.44109419  0.44109419
   9.32385650  0.44004352  3.98975292
   9.31228319  0.43366468  7.53965633
   9.32385650  3.98975292  0.44004352
   9.32420117  3.98895276  3.98895276
   9.31772510  3.98327122  7.54111922
   9.31228319  7.53965633  0.43366468
   9.31772510  7.54111922  3.98327122
   9.29648604  7.52885149  7.52885149
   2.21862387  0.44858885  0.44858885
   2.22413767  0.45577701  3.99618846
   2.21278353  0.44195295  7.54553650
   2.22413767  3.99618846  0.45577701
   2.24236660  4.01277687  4.01277687
   2.19580761  3.98788053  7.56522358
   2.21278353  7.54553650  0.44195295
   2.19580761  7.56522358  3.98788053
   2.20484692  7.54586978  7.54586978
   5.76851786  0.44421380  0.44421380
   5.76981575  0.44585600  3.99285514
   5.76529305  0.43524095  7.54273768
   5.76981575  3.99285514  0.44585600
   5.87776782  3.97973869  3.97973869
   5.76807810  3.95124615  7.56830787
   5.76529305  7.54273768  0.43524095
   5.76807810  7.56830787  3.95124615
   5.73917495  7.50796128  7.50796128
  10.19747215  8.42743713 10.19747215
  10.20410805  8.43327747  3.10052450
  10.19028399  8.42192333  6.64987254
  10.20496681  1.32940383 10.20496681
  10.21239632  1.33377781  3.10640467
  10.20601748  1.32220450  6.65630808
  10.20184720  4.87754314 10.20184720
  10.21082005  4.88076795  3.10332332
  10.20020500  4.87624525  6.65320586
   3.10052450  8.43327747 10.20410805
   3.10019122  8.44121408  3.10019122
   3.08083742  8.45025339  6.65818047
   3.10640467  1.33377781 10.21239632
   3.11720951  1.34957496  3.11720951
   3.10494178  1.32833590  6.66278978
   3.10332332  4.88076795 10.21082005
   3.13809972  4.90688605  3.13809972
   3.07775313  4.87798290  6.69481485
   6.64987254  8.42192333 10.19028399
   6.65818047  8.45025339  3.08083742
   6.63328413  8.40369440  6.63328413
   6.65630808  1.32220450 10.20601748
   6.66278978  1.32833590  3.10494178
   6.65710824  1.32185983  6.65710824
   6.65320586  4.87624525 10.20020500
   6.69481485  4.87798290  3.07775313
   6.66632231  4.76829318  6.66632231
   9.30842358  9.30842358  9.30842358
   9.31616819  9.31616819  2.21224414
   9.30720144  9.30720144  5.76135753
   9.31616819  2.21224414  9.31616819
   9.32636665  2.21625050  2.21625050
   9.32857635  2.20430203  5.76706567
   9.30720144  5.76135753  9.30720144
   9.32857635  5.76706567  2.20430203
   9.31043027  5.75959278  5.75959278
   2.21224414  9.31616819  9.31616819
   2.21625050  9.32636665  2.21625050
   2.20430203  9.32857635  5.76706567
   2.21625050  2.21625050  9.32636665
   2.22925572  2.22925572  2.22925572
   2.22574660  2.22574660  5.77897675
   2.20430203  5.76706567  9.32857635
   2.22574660  5.77897675  2.22574660
   2.21135440  5.77345879  5.77345879
   5.76135753  9.30720144  9.30720144
   5.76706567  9.32857635  2.20430203
   5.75959278  9.31043027  5.75959278
   5.76706567  2.20430203  9.32857635
   5.77897675  2.22574660  2.22574660
   5.77345879  2.21135440  5.77345879
   5.75959278  5.75959278  9.31043027
   5.77345879  5.77345879  2.21135440
  10.19747215 10.19747215  8.42743713
  10.20496681 10.20496681  1.32940383
  10.20184720 10.20184720  4.87754314
  10.20410805  3.10052450  8.43327747
  10.21239632  3.10640467  1.33377781
  10.21082005  3.10332332  4.88076795
  10.19028399  6.64987254  8.42192333
  10.20601748  6.65630808  1.32220450
  10.20020500  6.65320586  4.87624525
   3.10052450 10.20410805  8.43327747
   3.10640467 10.21239632  1.33377781
   3.10332332 10.21082005  4.88076795
   3.10019122  3.10019122  8.44121408
   3.11720951  3.11720951  1.34957496
   3.13809972  3.13809972  4.90688605
   3.08083742  6.65818047  8.45025339
   3.10494178  6.66278978  1.32833590
   3.07775313  6.69481485  4.87798290
   6.64987254 10.19028399  8.42192333
   6.65630808 10.20601748  1.32220450
   6.65320586 10.20020500  4.87624525
   6.65818047  3.08083742  8.45025339
   6.66278978  3.10494178  1.32833590
   6.69481485  3.07775313  4.87798290
   6.63328413  6.63328413  8.40369440
   6.65710824  6.65710824  1.32185983
   6.66632231  6.66632231  4.76829318
 


--------------------------------------------------------------------------------------------------------


 use parallel FFT for orbitals z direction half grid
 k-point  1 :   0.0000 0.0000 0.0000  plane waves:   10988

 maximum and minimum number of plane-waves per node :       696      679

 maximum number of plane-waves:     10988
 maximum index in each direction: 
   IXMAX=   17   IYMAX=   17   IZMAX=   17
   IXMIN=  -17   IYMIN=  -17   IZMIN=    0


 real space projection operators:
  total allocation   :      40841.81 KBytes
  max/ min on nodes  :       2947.69       2323.25


 parallel 3D FFT for wavefunctions:
    minimum data exchange during FFTs selected (reduces bandwidth)
 parallel 3D FFT for charge:
    minimum data exchange during FFTs selected (reduces bandwidth)


 FFT grid for exact exchange (Hartree Fock) 
  NGX = 36; NGY = 36; NGZ = 36

 use parallel FFT for orbitals z direction half grid
 
 Radii for the augmentation spheres in the non-local exchange
 for species   1 augmentation radius   1.055 (default was   0.989)
       energy cutoff for augmentation   1600.0
 for species   2 augmentation radius   0.795 (default was   0.699)
       energy cutoff for augmentation   1600.0

 real space projection operators:
  total allocation   :       1318.99 KBytes
  max/ min on nodes  :        110.88         68.91

 Maximum index for augmentation-charges in exchange            25
  SETUP_FOCK is finished

 total amount of memory used by VASP MPI-rank0    39717. kBytes
=======================================================================

   base      :      30000. kBytes
   nonlr-proj:       3654. kBytes
   fftplans  :       1350. kBytes
   grid      :       3557. kBytes
   one-center:         43. kBytes
   HF        :          9. kBytes
   wavefun   :       1104. kBytes
 
     INWAV:  cpu time    0.0000: real time    0.0000
 Broyden mixing: mesh for mixing (old mesh)
   NGX = 35   NGY = 35   NGZ = 35
  (NGX  =140   NGY  =140   NGZ  =140)
  gives a total of  42875 points

 initial charge density was supplied:
 charge density of overlapping atoms calculated
 number of electron     860.0000000 magnetization     129.0000000
 charge density for first step will be calculated from the start-wavefunctions


--------------------------------------------------------------------------------------------------------


 Maximum index for non-local projection operator           455
 Maximum index for augmentation-charges           164 (set IRDMAX)


--------------------------------------------------------------------------------------------------------


 First call to EWALD:  gamma=   0.166
 Maximum number of real-space cells 3x 3x 3
 Maximum number of reciprocal cells 3x 3x 3

    FEWALD:  cpu time    0.0199: real time    0.0199

 ----------------------------------------------------------------------------- 
|                                                                             |
|           W    W    AA    RRRRR   N    N  II  N    N   GGGG   !!!           |
|           W    W   A  A   R    R  NN   N  II  NN   N  G    G  !!!           |
|           W    W  A    A  R    R  N N  N  II  N N  N  G       !!!           |
|           W WW W  AAAAAA  RRRRR   N  N N  II  N  N N  G  GGG   !            |
|           WW  WW  A    A  R   R   N   NN  II  N   NN  G    G                |
|           W    W  A    A  R    R  N    N  II  N    N   GGGG   !!!           |
|                                                                             |
|      ALGO=A and IALGO=5X tend to fail with the tetrahedron method           |
|      (e.g. Bloechls method ISMEAR=-5 is not variational)                    |
|      please switch to IMSEAR=0-n, except for DOS calculations               |
|      For DOS calculations use IALGO=53 after preconverging with ISMEAR>=0   |
|          I HOPE YOU KNOW, WHAT YOU ARE  DOING                               |
|                                                                             |
 ----------------------------------------------------------------------------- 



--------------------------------------- Iteration      1(   1)  ---------------------------------------


    POTLOK:  cpu time    0.1985: real time    0.1987
    SETDIJ:  cpu time    0.0464: real time    0.0468
    TRIAL :  cpu time    0.8480: real time    0.8484
    CORREC:  cpu time    0.0002: real time    0.0002
    --------------------------------------------
      LOOP:  cpu time    1.0983: real time    1.0999

 eigenvalue-minimisations  :  1920
 total energy-change (2. order) : 0.7784618E+04  (-0.4501748E+05)
 number of electron     860.0000000 magnetization     129.0000000
 augmentation part      860.0000000 magnetization     129.0000000

 Free energy of the ion-electron system (eV)
  ---------------------------------------------------
  alpha Z        PSCENC =      3112.96981489
  Ewald energy   TEWEN  =    -37449.00313757
  -Hartree energ DENC   =     -1962.54247118
  -exchange      EXHF   =         0.00000000
  -V(xc)+E(xc)   XCENC  =      2365.90570488
  PAW double counting   =      8578.79954688    -8742.81222538
  entropy T*S    EENTRO =         0.00000000
  eigenvalues    EBANDS =     10824.14275135
  atomic energy  EATOM  =     31057.15824686
  ---------------------------------------------------
  free energy    TOTEN  =      7784.61823073 eV

  energy without entropy =     7784.61823073  energy(sigma->0) =     7784.61823073
  exchange ACFDT corr.  =         0.00000000  see jH, gK, PRB 81, 115126


--------------------------------------------------------------------------------------------------------




--------------------------------------- Iteration      1(   2)  ---------------------------------------


    TRIAL :  cpu time    1.1197: real time    1.1198
    CORREC:  cpu time    0.0002: real time    0.0002
    --------------------------------------------
      LOOP:  cpu time    1.1356: real time    1.1457

 eigenvalue-minimisations  :  2624
 total energy-change (2. order) :-0.7618268E+04  (-0.7376362E+04)
 number of electron     860.0000000 magnetization     129.0000000
 augmentation part      860.0000000 magnetization     129.0000000

 Free energy of the ion-electron system (eV)
  ---------------------------------------------------
  alpha Z        PSCENC =      3112.96981489
  Ewald energy   TEWEN  =    -37449.00313757
  -Hartree energ DENC   =     -1962.54247118
  -exchange      EXHF   =         0.00000000
  -V(xc)+E(xc)   XCENC  =      2365.90570488
  PAW double counting   =      8578.79954688    -8742.81222538
  entropy T*S    EENTRO =         0.00000000
  eigenvalues    EBANDS =      3205.87461386
  atomic energy  EATOM  =     31057.15824686
  ---------------------------------------------------
  free energy    TOTEN  =       166.35009324 eV

  energy without entropy =      166.35009324  energy(sigma->0) =      166.35009324
  exchange ACFDT corr.  =         0.00000000  see jH, gK, PRB 81, 115126


--------------------------------------------------------------------------------------------------------




--------------------------------------- Iteration      1(   3)  ---------------------------------------


    TRIAL :  cpu time    0.9522: real time    0.9522
    CORREC:  cpu time    0.0002: real time    0.0002
    --------------------------------------------
      LOOP:  cpu time    0.9649: real time    0.9782

 eigenvalue-minimisations  :  2144
 total energy-change (2. order) :-0.6316801E+03  (-0.6277708E+03)
 number of electron     860.0000000 magnetization     129.0000000
 augmentation part      860.0000000 magnetization     129.0000000

 Free energy of the ion-electron system (eV)
  ---------------------------------------------------
  alpha Z        PSCENC =      3112.96981489
  Ewald energy   TEWEN  =    -37449.00313757
  -Hartree energ DENC   =     -1962.54247118
  -exchange      EXHF   =         0.00000000
  -V(xc)+E(xc)   XCENC  =      2365.90570488
  PAW double counting   =      8578.79954688    -8742.81222538
  entropy T*S    EENTRO =         0.00000000
  eigenvalues    EBANDS =      2574.19455458
  atomic energy  EATOM  =     31057.15824686
  ---------------------------------------------------
  free energy    TOTEN  =      -465.32996604 eV

  energy without entropy =     -465.32996604  energy(sigma->0) =     -465.32996604
  exchange ACFDT corr.  =         0.00000000  see jH, gK, PRB 81, 115126


--------------------------------------------------------------------------------------------------------




--------------------------------------- Iteration      1(   4)  ---------------------------------------


    TRIAL :  cpu time    0.9990: real time    0.9991
    CORREC:  cpu time    0.0002: real time    0.0002
    --------------------------------------------
      LOOP:  cpu time    1.0118: real time    1.0243

 eigenvalue-minimisations  :  2208
 total energy-change (2. order) :-0.1399445E+02  (-0.1396491E+02)
 number of electron     860.0000000 magnetization     129.0000000
 augmentation part      860.0000000 magnetization     129.0000000

 Free energy of the ion-electron system (eV)
  ---------------------------------------------------
  alpha Z        PSCENC =      3112.96981489
  Ewald energy   TEWEN  =    -37449.00313757
  -Hartree energ DENC   =     -1962.54247118
  -exchange      EXHF   =         0.00000000
  -V(xc)+E(xc)   XCENC  =      2365.90570488
  PAW double counting   =      8578.79954688    -8742.81222538
  entropy T*S    EENTRO =         0.00000000
  eigenvalues    EBANDS =      2560.20010786
  atomic energy  EATOM  =     31057.15824686
  ---------------------------------------------------
  free energy    TOTEN  =      -479.32441276 eV

  energy without entropy =     -479.32441276  energy(sigma->0) =     -479.32441276
  exchange ACFDT corr.  =         0.00000000  see jH, gK, PRB 81, 115126


--------------------------------------------------------------------------------------------------------




--------------------------------------- Iteration      1(   5)  ---------------------------------------


    TRIAL :  cpu time    0.9085: real time    0.9086
    CORREC:  cpu time    0.0002: real time    0.0002
    CHARGE:  cpu time    0.0252: real time    0.0253
    --------------------------------------------
      LOOP:  cpu time    0.9439: real time    0.9594

 eigenvalue-minimisations  :  2144
 total energy-change (2. order) :-0.2666485E+00  (-0.2664978E+00)
 number of electron     859.9999989 magnetization       1.9999999
 augmentation part       20.7303089 magnetization       0.1229612

 Free energy of the ion-electron system (eV)
  ---------------------------------------------------
  alpha Z        PSCENC =      3112.96981489
  Ewald energy   TEWEN  =    -37449.00313757
  -Hartree energ DENC   =     -1962.54247118
  -exchange      EXHF   =         0.00000000
  -V(xc)+E(xc)   XCENC  =      2365.90570488
  PAW double counting   =      8578.79954688    -8742.81222538
  entropy T*S    EENTRO =         0.00000000
  eigenvalues    EBANDS =      2559.93345938
  atomic energy  EATOM  =     31057.15824686
  ---------------------------------------------------
  free energy    TOTEN  =      -479.59106124 eV

  energy without entropy =     -479.59106124  energy(sigma->0) =     -479.59106124
  exchange ACFDT corr.  =         0.00000000  see jH, gK, PRB 81, 115126


--------------------------------------------------------------------------------------------------------




--------------------------------------- Iteration      1(   6)  ---------------------------------------


    POTLOK:  cpu time    0.1338: real time    0.1338
    SETDIJ:  cpu time    0.0449: real time    0.0449
    TRIAL :  cpu time    8.5780: real time    8.5792
    CORREC:  cpu time    8.5701: real time    8.5712
    CHARGE:  cpu time    0.0252: real time    0.0252
    --------------------------------------------
      LOOP:  cpu time   17.3626: real time   17.3792

 eigenvalue-minimisations  :     0
 total energy-change (2. order) :-0.1920835E+04  (-0.6380910E+01)
 number of electron     859.9999990 magnetization       1.9999999
 augmentation part       20.3982470 magnetization       0.1137394

 Free energy of the ion-electron system (eV)
  ---------------------------------------------------
  alpha Z        PSCENC =      3112.96981489
  Ewald energy   TEWEN  =    -37449.00313757
  -Hartree energ DENC   =     -2972.40884944
  -exchange      EXHF   =      1986.17203710
  -V(xc)+E(xc)   XCENC  =      2432.99900414
  PAW double counting   =     15216.10157712   -15405.47428643
  entropy T*S    EENTRO =         0.00000000
  eigenvalues    EBANDS =      -378.94006834
  atomic energy  EATOM  =     31057.15824686
  ---------------------------------------------------
  free energy    TOTEN  =     -2400.42566167 eV

  energy without entropy =    -2400.42566167  energy(sigma->0) =    -2400.42566167
  exchange ACFDT corr.  =        -0.09177576  see jH, gK, PRB 81, 115126


--------------------------------------------------------------------------------------------------------




--------------------------------------- Iteration      1(   7)  ---------------------------------------


    POTLOK:  cpu time    0.1367: real time    0.1367
    SETDIJ:  cpu time    0.0433: real time    0.0433
    TRIAL :  cpu time    8.5878: real time    8.5886
    CORREC:  cpu time    8.5621: real time    8.5630
    CHARGE:  cpu time    0.0276: real time    0.0276
    --------------------------------------------
      LOOP:  cpu time   17.3726: real time   17.3915

 eigenvalue-minimisations  :     0
 total energy-change (2. order) :-0.6420211E+01  (-0.1904300E+01)
 number of electron     859.9999990 magnetization       1.9999999
 augmentation part       20.0976290 magnetization       0.1219693

 Free energy of the ion-electron system (eV)
  ---------------------------------------------------
  alpha Z        PSCENC =      3112.96981489
  Ewald energy   TEWEN  =    -37449.00313757
  -Hartree energ DENC   =     -2919.46660969
  -exchange      EXHF   =      1982.13033997
  -V(xc)+E(xc)   XCENC  =      2427.40156095
  PAW double counting   =     14996.17841149   -15182.23227592
  entropy T*S    EENTRO =         0.00000000
  eigenvalues    EBANDS =      -431.98222397
  atomic energy  EATOM  =     31057.15824686
  ---------------------------------------------------
  free energy    TOTEN  =     -2406.84587299 eV

  energy without entropy =    -2406.84587299  energy(sigma->0) =    -2406.84587299
  exchange ACFDT corr.  =        -0.12656899  see jH, gK, PRB 81, 115126


--------------------------------------------------------------------------------------------------------




--------------------------------------- Iteration      1(   8)  ---------------------------------------


    POTLOK:  cpu time    0.1372: real time    0.1372
    SETDIJ:  cpu time    0.0430: real time    0.0430
    TRIAL :  cpu time    8.9315: real time    8.9331
    CORREC:  cpu time    8.5765: real time    8.5774
    CHARGE:  cpu time    0.0246: real time    0.0246
    --------------------------------------------
      LOOP:  cpu time   17.7250: real time   17.7429

 eigenvalue-minimisations  :     0
 total energy-change (2. order) :-0.1908862E+01  (-0.4045993E+00)
 number of electron     859.9999991 magnetization       1.9999999
 augmentation part       19.9633555 magnetization       0.1227091

 Free energy of the ion-electron system (eV)
  ---------------------------------------------------
  alpha Z        PSCENC =      3112.96981489
  Ewald energy   TEWEN  =    -37449.00313757
  -Hartree energ DENC   =     -2865.49283967
  -exchange      EXHF   =      1980.74872440
  -V(xc)+E(xc)   XCENC  =      2424.28589594
  PAW double counting   =     14872.60860385   -15056.28954529
  entropy T*S    EENTRO =         0.00000000
  eigenvalues    EBANDS =      -485.74049825
  atomic energy  EATOM  =     31057.15824686
  ---------------------------------------------------
  free energy    TOTEN  =     -2408.75473483 eV

  energy without entropy =    -2408.75473483  energy(sigma->0) =    -2408.75473483
  exchange ACFDT corr.  =        -0.11160868  see jH, gK, PRB 81, 115126


--------------------------------------------------------------------------------------------------------




--------------------------------------- Iteration      1(   9)  ---------------------------------------


    POTLOK:  cpu time    0.1343: real time    0.1343
    SETDIJ:  cpu time    0.0432: real time    0.0432
    TRIAL :  cpu time    8.6116: real time    8.6124
    CORREC:  cpu time    8.5274: real time    8.5283
    CHARGE:  cpu time    0.0263: real time    0.0263
    --------------------------------------------
      LOOP:  cpu time   17.3603: real time   17.3774

 eigenvalue-minimisations  :     0
 total energy-change (2. order) :-0.4005441E+00  (-0.1012238E+00)
 number of electron     859.9999991 magnetization       1.9999999
 augmentation part       19.9263595 magnetization       0.1260673

 Free energy of the ion-electron system (eV)
  ---------------------------------------------------
  alpha Z        PSCENC =      3112.96981489
  Ewald energy   TEWEN  =    -37449.00313757
  -Hartree energ DENC   =     -2877.22931879
  -exchange      EXHF   =      1982.87987871
  -V(xc)+E(xc)   XCENC  =      2424.87413548
  PAW double counting   =     14888.61790579   -15071.53275179
  entropy T*S    EENTRO =         0.00000000
  eigenvalues    EBANDS =      -477.89005253
  atomic energy  EATOM  =     31057.15824686
  ---------------------------------------------------
  free energy    TOTEN  =     -2409.15527895 eV

  energy without entropy =    -2409.15527895  energy(sigma->0) =    -2409.15527895
  exchange ACFDT corr.  =        -0.11992804  see jH, gK, PRB 81, 115126


--------------------------------------------------------------------------------------------------------




--------------------------------------- Iteration      1(  10)  ---------------------------------------


    POTLOK:  cpu time    0.1383: real time    0.1383
    SETDIJ:  cpu time    0.0434: real time    0.0434
    TRIAL :  cpu time    8.5449: real time    8.5457
    CORREC:  cpu time    8.5314: real time    8.5323
    CHARGE:  cpu time    0.0239: real time    0.0239
    --------------------------------------------
      LOOP:  cpu time   17.2952: real time   17.3110

 eigenvalue-minimisations  :     0
 total energy-change (2. order) :-0.1005257E+00  (-0.5046349E-01)
 number of electron     859.9999991 magnetization       1.9999999
 augmentation part       19.9226982 magnetization       0.1280616

 Free energy of the ion-electron system (eV)
  ---------------------------------------------------
  alpha Z        PSCENC =      3112.96981489
  Ewald energy   TEWEN  =    -37449.00313757
  -Hartree energ DENC   =     -2881.82327584
  -exchange      EXHF   =      1983.75747963
  -V(xc)+E(xc)   XCENC  =      2425.32190588
  PAW double counting   =     14904.18493564   -15086.98553657
  entropy T*S    EENTRO =         0.00000000
  eigenvalues    EBANDS =      -474.83623755
  atomic energy  EATOM  =     31057.15824686
  ---------------------------------------------------
  free energy    TOTEN  =     -2409.25580462 eV

  energy without entropy =    -2409.25580462  energy(sigma->0) =    -2409.25580462
  exchange ACFDT corr.  =        -0.11830501  see jH, gK, PRB 81, 115126


--------------------------------------------------------------------------------------------------------




--------------------------------------- Iteration      1(  11)  ---------------------------------------


    POTLOK:  cpu time    0.1296: real time    0.1296
    SETDIJ:  cpu time    0.0430: real time    0.0430
    TRIAL :  cpu time    8.5118: real time    8.5127
    CORREC:  cpu time    8.5329: real time    8.5337
    CHARGE:  cpu time    0.0227: real time    0.0227
    --------------------------------------------
      LOOP:  cpu time   17.2602: real time   17.2761

 eigenvalue-minimisations  :     0
 total energy-change (2. order) :-0.4896594E-01  (-0.2166923E-01)
 number of electron     859.9999991 magnetization       1.9999999
 augmentation part       19.9324683 magnetization       0.1291272

 Free energy of the ion-electron system (eV)
  ---------------------------------------------------
  alpha Z        PSCENC =      3112.96981489
  Ewald energy   TEWEN  =    -37449.00313757
  -Hartree energ DENC   =     -2884.38337159
  -exchange      EXHF   =      1983.88950207
  -V(xc)+E(xc)   XCENC  =      2425.43770121
  PAW double counting   =     14907.77401442   -15090.61993234
  entropy T*S    EENTRO =         0.00000000
  eigenvalues    EBANDS =      -472.52760853
  atomic energy  EATOM  =     31057.15824686
  ---------------------------------------------------
  free energy    TOTEN  =     -2409.30477057 eV

  energy without entropy =    -2409.30477057  energy(sigma->0) =    -2409.30477057
  exchange ACFDT corr.  =        -0.11677842  see jH, gK, PRB 81, 115126


--------------------------------------------------------------------------------------------------------




--------------------------------------- Iteration      1(  12)  ---------------------------------------


    POTLOK:  cpu time    0.1293: real time    0.1293
    SETDIJ:  cpu time    0.0422: real time    0.0423
    TRIAL :  cpu time    8.5186: real time    8.5195
    CORREC:  cpu time    8.5484: real time    8.5494
    CHARGE:  cpu time    0.0242: real time    0.0242
    --------------------------------------------
      LOOP:  cpu time   17.2789: real time   17.2935

 eigenvalue-minimisations  :     0
 total energy-change (2. order) :-0.2150780E-01  (-0.1179421E-01)
 number of electron     859.9999991 magnetization       1.9999999
 augmentation part       19.9490428 magnetization       0.1281785

 Free energy of the ion-electron system (eV)
  ---------------------------------------------------
  alpha Z        PSCENC =      3112.96981489
  Ewald energy   TEWEN  =    -37449.00313757
  -Hartree energ DENC   =     -2883.24834931
  -exchange      EXHF   =      1983.78716339
  -V(xc)+E(xc)   XCENC  =      2425.41011257
  PAW double counting   =     14906.08667033   -15089.03951139
  entropy T*S    EENTRO =         0.00000000
  eigenvalues    EBANDS =      -473.44728813
  atomic energy  EATOM  =     31057.15824686
  ---------------------------------------------------
  free energy    TOTEN  =     -2409.32627837 eV

  energy without entropy =    -2409.32627837  energy(sigma->0) =    -2409.32627837
  exchange ACFDT corr.  =        -0.11006511  see jH, gK, PRB 81, 115126


--------------------------------------------------------------------------------------------------------




--------------------------------------- Iteration      1(  13)  ---------------------------------------


    POTLOK:  cpu time    0.1307: real time    0.1307
    SETDIJ:  cpu time    0.0433: real time    0.0433
    TRIAL :  cpu time    8.5141: real time    8.5150
    CORREC:  cpu time    8.5344: real time    8.5352
    CHARGE:  cpu time    0.0225: real time    0.0225
    --------------------------------------------
      LOOP:  cpu time   17.2631: real time   17.2782

 eigenvalue-minimisations  :     0
 total energy-change (2. order) :-0.1168182E-01  (-0.9326816E-02)
 number of electron     859.9999991 magnetization       1.9999999
 augmentation part       19.9660223 magnetization       0.1264373

 Free energy of the ion-electron system (eV)
  ---------------------------------------------------
  alpha Z        PSCENC =      3112.96981489
  Ewald energy   TEWEN  =    -37449.00313757
  -Hartree energ DENC   =     -2883.85946405
  -exchange      EXHF   =      1983.78794954
  -V(xc)+E(xc)   XCENC  =      2425.42665498
  PAW double counting   =     14906.10268972   -15089.14323948
  entropy T*S    EENTRO =         0.00000000
  eigenvalues    EBANDS =      -472.77747508
  atomic energy  EATOM  =     31057.15824686
  ---------------------------------------------------
  free energy    TOTEN  =     -2409.33796019 eV

  energy without entropy =    -2409.33796019  energy(sigma->0) =    -2409.33796019
  exchange ACFDT corr.  =        -0.09667956  see jH, gK, PRB 81, 115126


--------------------------------------------------------------------------------------------------------




--------------------------------------- Iteration      1(  14)  ---------------------------------------


    POTLOK:  cpu time    0.1295: real time    0.1295
    SETDIJ:  cpu time    0.0432: real time    0.0432
    TRIAL :  cpu time    8.5079: real time    8.5089
    CORREC:  cpu time    8.5175: real time    8.5184
    CHARGE:  cpu time    0.0240: real time    0.0240
    --------------------------------------------
      LOOP:  cpu time   17.2351: real time   17.2508

 eigenvalue-minimisations  :     0
 total energy-change (2. order) :-0.9279768E-02  (-0.8255383E-02)
 number of electron     859.9999991 magnetization       1.9999999
 augmentation part       19.9720214 magnetization       0.1248052

 Free energy of the ion-electron system (eV)
  ---------------------------------------------------
  alpha Z        PSCENC =      3112.96981489
  Ewald energy   TEWEN  =    -37449.00313757
  -Hartree energ DENC   =     -2884.17407692
  -exchange      EXHF   =      1983.82690823
  -V(xc)+E(xc)   XCENC  =      2425.43727604
  PAW double counting   =     14906.69609823   -15089.77826625
  entropy T*S    EENTRO =         0.00000000
  eigenvalues    EBANDS =      -472.48010346
  atomic energy  EATOM  =     31057.15824686
  ---------------------------------------------------
  free energy    TOTEN  =     -2409.34723995 eV

  energy without entropy =    -2409.34723995  energy(sigma->0) =    -2409.34723995
  exchange ACFDT corr.  =        -0.08676168  see jH, gK, PRB 81, 115126


--------------------------------------------------------------------------------------------------------




--------------------------------------- Iteration      1(  15)  ---------------------------------------


    POTLOK:  cpu time    0.1339: real time    0.1339
    SETDIJ:  cpu time    0.0437: real time    0.0438
    TRIAL :  cpu time    8.5398: real time    8.5407
    CORREC:  cpu time    8.5209: real time    8.5218
    CHARGE:  cpu time    0.0236: real time    0.0236
    --------------------------------------------
      LOOP:  cpu time   17.2731: real time   17.2955

 eigenvalue-minimisations  :     0
 total energy-change (2. order) :-0.8172428E-02  (-0.8663924E-02)
 number of electron     859.9999991 magnetization       1.9999999
 augmentation part       19.9675146 magnetization       0.1231197

 Free energy of the ion-electron system (eV)
  ---------------------------------------------------
  alpha Z        PSCENC =      3112.96981489
  Ewald energy   TEWEN  =    -37449.00313757
  -Hartree energ DENC   =     -2883.51983485
  -exchange      EXHF   =      1983.85522831
  -V(xc)+E(xc)   XCENC  =      2425.42192315
  PAW double counting   =     14907.10651136   -15090.17383128
  entropy T*S    EENTRO =         0.00000000
  eigenvalues    EBANDS =      -473.17033326
  atomic energy  EATOM  =     31057.15824686
  ---------------------------------------------------
  free energy    TOTEN  =     -2409.35541238 eV

  energy without entropy =    -2409.35541238  energy(sigma->0) =    -2409.35541238
  exchange ACFDT corr.  =        -0.05750124  see jH, gK, PRB 81, 115126


--------------------------------------------------------------------------------------------------------




--------------------------------------- Iteration      1(  16)  ---------------------------------------


    POTLOK:  cpu time    0.1343: real time    0.1343
    SETDIJ:  cpu time    0.0437: real time    0.0437
    TRIAL :  cpu time    8.5082: real time    8.5091
    CORREC:  cpu time    8.5203: real time    8.5213
    CHARGE:  cpu time    0.0239: real time    0.0239
    --------------------------------------------
      LOOP:  cpu time   17.2423: real time   17.2591

 eigenvalue-minimisations  :     0
 total energy-change (2. order) :-0.8381966E-02  (-0.6307922E-02)
 number of electron     859.9999991 magnetization       1.9999999
 augmentation part       19.9587812 magnetization       0.1227922

 Free energy of the ion-electron system (eV)
  ---------------------------------------------------
  alpha Z        PSCENC =      3112.96981489
  Ewald energy   TEWEN  =    -37449.00313757
  -Hartree energ DENC   =     -2883.73248436
  -exchange      EXHF   =      1983.91526911
  -V(xc)+E(xc)   XCENC  =      2425.42466860
[...]
    4ORBIT:  cpu time    0.0000: real time    0.0000
 


 total charge     
 
# of ion       s       p       d       tot
------------------------------------------
    1        0.700   0.962   0.000   1.662
    2        0.841   1.762   0.000   2.603
    3        0.841   1.766   0.000   2.606
    4        0.842   1.768   0.000   2.610
    5        0.841   1.766   0.000   2.607
    6        0.840   1.762   0.000   2.603
    7        0.841   1.763   0.000   2.604
    8        0.840   1.763   0.000   2.603
    9        0.841   1.765   0.000   2.606
   10        0.841   1.764   0.000   2.604
   11        0.841   1.766   0.000   2.607
   12        0.840   1.762   0.000   2.603
   13        0.841   1.763   0.000   2.604
   14        0.840   1.757   0.000   2.597
   15        0.838   1.752   0.000   2.591
   16        0.861   1.729   0.000   2.590
   17        0.840   1.762   0.000   2.603
   18        0.842   1.768   0.000   2.610
   19        0.845   1.781   0.000   2.626
   20        0.840   1.763   0.000   2.603
   21        0.841   1.765   0.000   2.606
   22        0.841   1.764   0.000   2.604
   23        0.840   1.762   0.000   2.603
   24        0.842   1.768   0.000   2.610
   25        0.845   1.781   0.000   2.626
   26        0.839   1.754   0.000   2.592
   27        0.840   1.762   0.000   2.603
   28        0.841   1.756   0.000   2.597
   29        0.840   1.763   0.000   2.604
   30        0.841   1.764   0.000   2.605
   31        0.843   1.749   0.000   2.592
   32        0.841   1.766   0.000   2.607
   33        0.841   1.763   0.000   2.604
   34        0.842   1.773   0.000   2.615
   35        0.840   1.751   0.000   2.591
   36        0.841   1.765   0.000   2.606
   37        0.840   1.756   0.000   2.597
   38        0.841   1.766   0.000   2.607
   39        0.841   1.763   0.000   2.604
   40        0.842   1.773   0.000   2.615
   41        0.841   1.764   0.000   2.605
   42        0.840   1.762   0.000   2.602
   43        0.841   1.765   0.000   2.605
   44        0.842   1.766   0.000   2.607
   45        0.840   1.759   0.000   2.599
   46        0.841   1.766   0.000   2.607
   47        0.840   1.751   0.000   2.591
   48        0.841   1.765   0.000   2.606
   49        0.840   1.756   0.000   2.597
   50        0.842   1.765   0.000   2.607
   51        0.840   1.759   0.000   2.599
   52        0.841   1.766   0.000   2.607
   53        0.838   1.751   0.000   2.590
   54        0.840   1.761   0.000   2.601
   55        0.840   1.763   0.000   2.604
   56        0.842   1.772   0.000   2.614
   57        0.841   1.763   0.000   2.604
   58        0.841   1.765   0.000   2.606
   59        0.841   1.764   0.000   2.604
   60        0.841   1.763   0.000   2.604
   61        0.841   1.762   0.000   2.603
   62        0.841   1.763   0.000   2.604
   63        0.841   1.764   0.000   2.605
   64        0.841   1.766   0.000   2.607
   65        0.841   1.764   0.000   2.604
   66        0.841   1.765   0.000   2.606
   67        0.840   1.760   0.000   2.600
   68        0.840   1.756   0.000   2.596
   69        0.844   1.760   0.000   2.604
   70        0.840   1.760   0.000   2.600
   71        0.845   1.770   0.000   2.615
   72        0.842   1.756   0.000   2.598
   73        0.840   1.762   0.000   2.602
   74        0.841   1.766   0.000   2.607
   75        0.840   1.758   0.000   2.598
   76        0.840   1.763   0.000   2.603
   77        0.844   1.780   0.000   2.624
   78        0.841   1.762   0.000   2.603
   79        0.840   1.761   0.000   2.601
   80        0.845   1.764   0.000   2.609
   81        0.837   1.736   0.000   2.573
   82        0.841   1.765   0.000   2.606
   83        0.841   1.763   0.000   2.604
   84        0.841   1.764   0.000   2.604
   85        0.840   1.763   0.000   2.603
   86        0.841   1.762   0.000   2.603
   87        0.844   1.780   0.000   2.624
   88        0.840   1.760   0.000   2.600
   89        0.844   1.760   0.000   2.604
   90        0.840   1.756   0.000   2.596
   91        0.840   1.763   0.000   2.604
   92        0.841   1.763   0.000   2.604
   93        0.842   1.772   0.000   2.614
   94        0.840   1.762   0.000   2.602
   95        0.840   1.758   0.000   2.598
   96        0.841   1.766   0.000   2.607
   97        0.841   1.766   0.000   2.607
   98        0.841   1.765   0.000   2.606
   99        0.841   1.764   0.000   2.604
  100        0.841   1.762   0.000   2.603
  101        0.841   1.764   0.000   2.605
  102        0.841   1.763   0.000   2.604
  103        0.840   1.761   0.000   2.601
  104        0.836   1.736   0.000   2.573
  105        0.845   1.764   0.000   2.609
  106        0.840   1.760   0.000   2.600
  107        0.842   1.756   0.000   2.598
  108        0.845   1.770   0.000   2.615
  109        0.840   1.763   0.000   2.604
  110        0.842   1.772   0.000   2.614
  111        0.841   1.763   0.000   2.604
  112        0.841   1.766   0.000   2.607
  113        0.841   1.764   0.000   2.604
  114        0.841   1.765   0.000   2.606
  115        0.840   1.762   0.000   2.602
  116        0.841   1.766   0.000   2.607
  117        0.840   1.758   0.000   2.598
  118        0.841   1.765   0.000   2.606
  119        0.841   1.764   0.000   2.604
  120        0.841   1.763   0.000   2.604
  121        0.840   1.760   0.000   2.600
  122        0.840   1.756   0.000   2.596
  123        0.844   1.760   0.000   2.604
  124        0.840   1.763   0.000   2.603
  125        0.844   1.780   0.000   2.624
  126        0.841   1.762   0.000   2.603
  127        0.841   1.762   0.000   2.603
  128        0.841   1.763   0.000   2.604
  129        0.841   1.764   0.000   2.605
  130        0.840   1.760   0.000   2.600
  131        0.845   1.770   0.000   2.615
  132        0.842   1.756   0.000   2.598
  133        0.840   1.761   0.000   2.601
  134        0.845   1.764   0.000   2.609
  135        0.836   1.736   0.000   2.573
  136        0.841   1.765   0.000   2.606
  137        0.841   1.763   0.000   2.604
  138        0.841   1.764   0.000   2.604
  139        0.840   1.763   0.000   2.604
  140        0.841   1.763   0.000   2.604
  141        0.842   1.772   0.000   2.614
  142        0.841   1.762   0.000   2.603
  143        0.841   1.764   0.000   2.605
  144        0.841   1.763   0.000   2.604
  145        0.840   1.763   0.000   2.603
  146        0.841   1.762   0.000   2.603
  147        0.844   1.780   0.000   2.624
  148        0.840   1.762   0.000   2.602
  149        0.840   1.758   0.000   2.598
  150        0.841   1.766   0.000   2.607
  151        0.840   1.761   0.000   2.601
  152        0.837   1.736   0.000   2.573
  153        0.845   1.764   0.000   2.609
  154        0.840   1.760   0.000   2.600
  155        0.844   1.760   0.000   2.604
  156        0.840   1.756   0.000   2.596
  157        0.841   1.766   0.000   2.607
  158        0.841   1.765   0.000   2.606
  159        0.841   1.764   0.000   2.604
  160        0.840   1.760   0.000   2.600
  161        0.842   1.756   0.000   2.598
  162        0.845   1.770   0.000   2.615
  163        0.840   1.762   0.000   2.602
  164        0.841   1.764   0.000   2.605
  165        0.841   1.765   0.000   2.605
  166        0.841   1.763   0.000   2.604
  167        0.841   1.766   0.000   2.607
  168        0.842   1.773   0.000   2.615
  169        0.840   1.759   0.000   2.599
  170        0.842   1.766   0.000   2.607
  171        0.841   1.766   0.000   2.607
  172        0.841   1.763   0.000   2.604
  173        0.841   1.766   0.000   2.607
  174        0.842   1.773   0.000   2.615
  175        0.841   1.764   0.000   2.605
  176        0.840   1.763   0.000   2.604
  177        0.843   1.749   0.000   2.592
  178        0.841   1.765   0.000   2.606
  179        0.840   1.751   0.000   2.591
  180        0.840   1.756   0.000   2.597
  181        0.840   1.759   0.000   2.599
  182        0.842   1.765   0.000   2.607
  183        0.841   1.766   0.000   2.607
  184        0.841   1.765   0.000   2.606
  185        0.840   1.751   0.000   2.591
  186        0.840   1.756   0.000   2.597
  187        0.840   1.761   0.000   2.601
  188        0.838   1.751   0.000   2.590
  189        0.841   1.766   0.000   2.606
  190        0.841   1.762   0.000   2.603
  191        0.842   1.768   0.000   2.610
  192        0.841   1.765   0.000   2.606
  193        0.840   1.763   0.000   2.603
  194        0.841   1.764   0.000   2.604
  195        0.840   1.762   0.000   2.603
  196        0.841   1.766   0.000   2.607
  197        0.841   1.763   0.000   2.604
  198        0.841   1.765   0.000   2.606
  199        0.840   1.763   0.000   2.603
  200        0.841   1.764   0.000   2.604
  201        0.840   1.762   0.000   2.603
  202        0.839   1.754   0.000   2.592
  203        0.841   1.756   0.000   2.597
  204        0.842   1.768   0.000   2.610
  205        0.840   1.762   0.000   2.603
  206        0.845   1.781   0.000   2.626
  207        0.840   1.762   0.000   2.603
  208        0.841   1.766   0.000   2.607
  209        0.841   1.763   0.000   2.604
  210        0.842   1.768   0.000   2.610
  211        0.840   1.762   0.000   2.603
  212        0.845   1.781   0.000   2.626
  213        0.838   1.752   0.000   2.591
  214        0.840   1.757   0.000   2.597
  215        0.861   1.729   0.000   2.590
--------------------------------------------------
tot        180.710 378.124   0.000 558.834
 


 magnetization (x)
 
# of ion       s       p       d       tot
------------------------------------------
    1       -0.004   0.085   0.000   0.081
    2        0.000   0.002   0.000   0.002
    3       -0.000   0.000   0.000   0.000
    4        0.000   0.003   0.000   0.003
    5        0.000   0.003   0.000   0.004
    6        0.000   0.001   0.000   0.001
    7        0.000   0.002   0.000   0.002
    8       -0.000   0.000   0.000   0.000
    9        0.000   0.001   0.000   0.001
   10       -0.000   0.000   0.000   0.000
   11        0.000   0.003   0.000   0.004
   12        0.000   0.001   0.000   0.001
   13        0.000   0.002   0.000   0.002
   14        0.000   0.003   0.000   0.004
   15        0.000   0.000   0.000   0.001
   16        0.020   0.251   0.000   0.272
   17       -0.000   0.000   0.000   0.000
   18        0.001   0.005   0.000   0.006
   19        0.000   0.002   0.000   0.002
   20       -0.000   0.000   0.000   0.000
   21        0.000   0.001   0.000   0.001
   22       -0.000   0.000   0.000   0.000
   23       -0.000   0.000   0.000   0.000
   24        0.001   0.005   0.000   0.006
   25        0.000   0.002   0.000   0.002
   26        0.000   0.000   0.000   0.000
   27       -0.000  -0.001   0.000  -0.002
   28       -0.002  -0.003   0.000  -0.005
   29        0.000   0.000   0.000   0.000
   30        0.000   0.003   0.000   0.003
   31        0.003   0.026   0.000   0.029
   32        0.000   0.000   0.000   0.000
   33        0.000   0.001   0.000   0.001
   34        0.000   0.000   0.000   0.000
   35        0.000   0.003   0.000   0.004
   36        0.000   0.004   0.000   0.004
   37        0.000   0.003   0.000   0.003
   38        0.000   0.000   0.000   0.000
   39        0.000   0.001   0.000   0.001
   40        0.000   0.000   0.000   0.000
   41       -0.000   0.000   0.000   0.000
   42        0.000   0.001   0.000   0.001
   43        0.000   0.002   0.000   0.002
   44        0.001   0.007   0.000   0.007
   45       -0.000   0.000   0.000  -0.000
   46       -0.000  -0.000   0.000  -0.000
   47        0.000   0.003   0.000   0.004
   48        0.000   0.004   0.000   0.004
   49        0.000   0.003   0.000   0.003
   50        0.001   0.007   0.000   0.007
   51       -0.000   0.000   0.000  -0.000
   52       -0.000  -0.000   0.000  -0.000
   53       -0.000  -0.000   0.000  -0.001
   54        0.000   0.001   0.000   0.001
   55        0.000   0.001   0.000   0.001
   56       -0.000   0.000   0.000   0.000
   57        0.000   0.001   0.000   0.001
   58        0.000   0.000   0.000   0.000
   59       -0.000   0.000   0.000   0.000
   60        0.000   0.005   0.000   0.005
   61        0.000   0.002   0.000   0.002
   62        0.000   0.001   0.000   0.001
   63       -0.000   0.000   0.000  -0.000
   64        0.000   0.002   0.000   0.002
   65       -0.000   0.001   0.000   0.001
   66       -0.000   0.000   0.000  -0.000
   67        0.000   0.001   0.000   0.001
   68        0.000   0.006   0.000   0.007
   69        0.003   0.028   0.000   0.031
   70       -0.000   0.000   0.000   0.000
   71        0.004   0.038   0.000   0.041
   72        0.002   0.020   0.000   0.022
   73       -0.000   0.000   0.000   0.000
   74       -0.000  -0.001   0.000  -0.001
   75       -0.000  -0.000   0.000  -0.000
   76        0.000   0.001   0.000   0.001
   77        0.000   0.003   0.000   0.004
   78       -0.000   0.000   0.000   0.000
   79       -0.000   0.000   0.000   0.000
   80       -0.000   0.011   0.000   0.011
   81       -0.000  -0.000   0.000  -0.001
   82        0.000   0.000   0.000   0.001
   83        0.000   0.005   0.000   0.005
   84       -0.000   0.000   0.000   0.000
   85        0.000   0.001   0.000   0.001
   86       -0.000   0.000   0.000   0.000
   87        0.000   0.003   0.000   0.004
   88        0.000   0.001   0.000   0.001
   89        0.003   0.028   0.000   0.031
   90        0.000   0.006   0.000   0.007
   91        0.000   0.001   0.000   0.001
   92        0.000   0.001   0.000   0.001
   93       -0.000   0.000   0.000   0.000
   94       -0.000   0.000   0.000   0.000
   95       -0.000  -0.000   0.000  -0.000
   96       -0.000  -0.001   0.000  -0.001
   97        0.000   0.002   0.000   0.002
   98       -0.000   0.000   0.000  -0.000
   99       -0.000   0.001   0.000   0.001
  100        0.000   0.002   0.000   0.002
  101       -0.000   0.000   0.000  -0.000
  102        0.000   0.001   0.000   0.001
  103       -0.000   0.000   0.000   0.000
  104       -0.000  -0.000   0.000  -0.001
  105       -0.000   0.011   0.000   0.011
  106       -0.000   0.000   0.000   0.000
  107        0.002   0.020   0.000   0.022
  108        0.004   0.037   0.000   0.040
  109        0.000   0.001   0.000   0.001
  110       -0.000   0.000   0.000   0.000
  111        0.000   0.001   0.000   0.001
  112        0.000   0.002   0.000   0.002
  113       -0.000   0.001   0.000   0.001
  114       -0.000   0.000   0.000  -0.000
  115       -0.000   0.000   0.000   0.000
  116       -0.000  -0.001   0.000  -0.001
  117       -0.000  -0.000   0.000  -0.000
  118        0.000   0.000   0.000   0.000
  119       -0.000   0.000   0.000   0.000
  120        0.000   0.005   0.000   0.005
  121        0.000   0.001   0.000   0.001
  122        0.000   0.006   0.000   0.007
  123        0.003   0.028   0.000   0.031
  124        0.000   0.001   0.000   0.001
  125        0.000   0.003   0.000   0.004
  126       -0.000   0.000   0.000   0.000
  127        0.000   0.002   0.000   0.002
  128        0.000   0.001   0.000   0.001
  129       -0.000   0.000   0.000  -0.000
  130       -0.000   0.000   0.000   0.000
  131        0.004   0.037   0.000   0.040
  132        0.002   0.020   0.000   0.022
  133       -0.000   0.000   0.000   0.000
  134       -0.000   0.011   0.000   0.011
  135       -0.000  -0.000   0.000  -0.001
  136        0.000   0.000   0.000   0.000
  137        0.000   0.005   0.000   0.005
  138       -0.000   0.000   0.000   0.000
  139        0.000   0.001   0.000   0.001
  140        0.000   0.001   0.000   0.001
  141       -0.000   0.000   0.000   0.000
  142        0.000   0.002   0.000   0.002
  143       -0.000   0.000   0.000  -0.000
  144        0.000   0.001   0.000   0.001
  145        0.000   0.001   0.000   0.001
  146       -0.000   0.000   0.000   0.000
  147        0.000   0.003   0.000   0.004
  148       -0.000   0.000   0.000   0.000
  149       -0.000  -0.000   0.000  -0.000
  150       -0.000  -0.001   0.000  -0.001
  151       -0.000   0.000   0.000   0.000
  152       -0.000  -0.000   0.000  -0.001
  153       -0.000   0.011   0.000   0.011
  154        0.000   0.001   0.000   0.001
  155        0.003   0.028   0.000   0.031
  156        0.000   0.006   0.000   0.007
  157        0.000   0.002   0.000   0.002
  158       -0.000   0.000   0.000  -0.000
  159       -0.000   0.001   0.000   0.001
  160       -0.000   0.000   0.000   0.000
  161        0.002   0.020   0.000   0.022
  162        0.004   0.038   0.000   0.041
  163        0.000   0.001   0.000   0.001
  164       -0.000   0.000   0.000   0.000
  165        0.000   0.002   0.000   0.002
  166        0.000   0.001   0.000   0.001
  167        0.000   0.000   0.000   0.000
  168        0.000   0.000   0.000   0.000
  169       -0.000   0.000   0.000  -0.000
  170        0.001   0.007   0.000   0.007
  171       -0.000  -0.000   0.000  -0.000
  172        0.000   0.001   0.000   0.001
  173        0.000   0.000   0.000   0.000
  174        0.000   0.000   0.000   0.000
  175        0.000   0.003   0.000   0.003
  176        0.000   0.000   0.000   0.000
  177        0.003   0.026   0.000   0.029
  178        0.000   0.004   0.000   0.004
  179        0.000   0.003   0.000   0.004
  180        0.000   0.003   0.000   0.003
  181       -0.000  -0.000   0.000  -0.000
  182        0.001   0.007   0.000   0.007
  183       -0.000  -0.000   0.000  -0.000
  184        0.000   0.004   0.000   0.004
  185        0.000   0.003   0.000   0.004
  186        0.000   0.003   0.000   0.003
  187        0.000   0.001   0.000   0.001
  188       -0.000  -0.000   0.000  -0.001
  189       -0.000   0.000   0.000   0.000
  190        0.000   0.002   0.000   0.002
  191        0.000   0.003   0.000   0.003
  192        0.000   0.001   0.000   0.001
  193       -0.000   0.000   0.000   0.000
  194       -0.000   0.000   0.000   0.000
  195        0.000   0.001   0.000   0.001
  196        0.000   0.003   0.000   0.004
  197        0.000   0.002   0.000   0.002
  198        0.000   0.001   0.000   0.001
  199       -0.000   0.000   0.000   0.000
  200       -0.000   0.000   0.000   0.000
  201       -0.000  -0.001   0.000  -0.002
  202        0.000   0.000   0.000   0.000
  203       -0.002  -0.003   0.000  -0.005
  204        0.001   0.005   0.000   0.006
  205       -0.000   0.000   0.000   0.000
  206        0.000   0.002   0.000   0.002
  207        0.000   0.001   0.000   0.001
  208        0.000   0.003   0.000   0.004
  209        0.000   0.002   0.000   0.002
  210        0.001   0.005   0.000   0.006
  211       -0.000   0.000   0.000   0.000
  212        0.000   0.002   0.000   0.002
  213        0.000   0.000   0.000   0.001
  214        0.000   0.003   0.000   0.004
  215        0.020   0.251   0.000   0.272
--------------------------------------------------
tot          0.086   1.274   0.000   1.360
 

 total amount of memory used by VASP MPI-rank0    39717. kBytes
=======================================================================

   base      :      30000. kBytes
   nonlr-proj:       3654. kBytes
   fftplans  :       1350. kBytes
   grid      :       3557. kBytes
   one-center:         43. kBytes
   HF        :          9. kBytes
   wavefun   :       1104. kBytes
 
  
  
 General timing and accounting informations for this job:
 ========================================================
  
                  Total CPU time used (sec):     2749.627
                            User time (sec):     2717.754
                          System time (sec):       31.873
                         Elapsed time (sec):     2753.121
  
                   Maximum memory used (kb):      416668.
                   Average memory used (kb):           0.
  
                          Minor page faults:       267877
                          Major page faults:          367
                 Voluntary context switches:        16310
