 running on  512 total cores
 distrk:  each k-point on  512 cores,    1 groups
 distr:  one band on   16 cores,   32 groups
 using from now: INCAR     
 vasp.5.4.4.18Apr17-6-g9f103f2a35 (build Jun 14 2024 12:30:39) gamma-only        
 POSCAR found type information on POSCAR  Si C 
 POSCAR found :  2 types and     215 ions
 scaLAPACK will be used
 LDA part: xc-table for Pade appr. of Perdew

 ----------------------------------------------------------------------------- 
|                                                                             |
|           W    W    AA    RRRRR   N    N  II  N    N   GGGG   !!!           |
|           W    W   A  A   R    R  NN   N  II  NN   N  G    G  !!!           |
|           W    W  A    A  R    R  N N  N  II  N N  N  G       !!!           |
|           W WW W  AAAAAA  RRRRR   N  N N  II  N  N N  G  GGG   !            |
|           WW  WW  A    A  R   R   N   NN  II  N   NN  G    G                |
|           W    W  A    A  R    R  N    N  II  N    N   GGGG   !!!           |
|                                                                             |
|      The number of bands has been changed from the values supplied          |
|      in the INCAR file. This is a result of running the parallel version.   |
|      The orbitals not found in the WAVECAR file will be initialized with    |
|      random numbers, which is usually adequate. For correlated              |
|      calculations, however, you should redo the groundstate calculation.    |
|      I found NBANDS    =      450  now  NBANDS  =     480                   |
|                                                                             |
 ----------------------------------------------------------------------------- 

 POSCAR, INCAR and KPOINTS ok, starting setup
 FFT: planning ...
 WAVECAR not read
 WARNING: random wavefunctions but no delay for mixing, default for NELMDL
 entering main loop

 ----------------------------------------------------------------------------- 
|                                                                             |
|           W    W    AA    RRRRR   N    N  II  N    N   GGGG   !!!           |
|           W    W   A  A   R    R  NN   N  II  NN   N  G    G  !!!           |
|           W    W  A    A  R    R  N N  N  II  N N  N  G       !!!           |
|           W WW W  AAAAAA  RRRRR   N  N N  II  N  N N  G  GGG   !            |
|           WW  WW  A    A  R   R   N   NN  II  N   NN  G    G                |
|           W    W  A    A  R    R  N    N  II  N    N   GGGG   !!!           |
|                                                                             |
|      ALGO=A and IALGO=5X tend to fail with the tetrahedron method           |
|      (e.g. Bloechls method ISMEAR=-5 is not variational)                    |
|      please switch to IMSEAR=0-n, except for DOS calculations               |
|      For DOS calculations use IALGO=53 after preconverging with ISMEAR>=0   |
|          I HOPE YOU KNOW, WHAT YOU ARE  DOING                               |
|                                                                             |
 ----------------------------------------------------------------------------- 

       N       E                     dE             d eps       ncg     rms          ort
DAV:   1     0.778461823073E+04    0.77846E+04   -0.45017E+05   480   0.151E+03
DAV:   2     0.166350093243E+03   -0.76183E+04   -0.73764E+04   480   0.363E+02
DAV:   3    -0.465329966043E+03   -0.63168E+03   -0.62777E+03   480   0.103E+02
DAV:   4    -0.479324412762E+03   -0.13994E+02   -0.13965E+02   480   0.176E+01
DAV:   5    -0.479591061242E+03   -0.26665E+00   -0.26650E+00   480   0.229E+00
 gam= 0.000 g(H,U,f)=  0.218E+02 0.482E+01 0.000E+00 ort(H,U,f) = 0.000E+00 0.000E+00 0.000E+00
SDA:   6    -0.240042566167E+04   -0.19208E+04   -0.26650E+00   480   0.266E+02 0.000E+00
 gam= 0.000 trial= 0.400  step= 0.480 mean= 0.400
 gam= 0.285 g(H,U,f)=  0.590E+01 0.168E+01 0.000E+00 ort(H,U,f) = 0.315E+01-0.218E+01 0.000E+00
CGA:   7    -0.240684587299E+04   -0.64202E+01   -0.63809E+01   480   0.757E+01 0.963E+00
 gam= 0.285 trial= 0.404  step= 0.485 mean= 0.404
 gam= 0.138 g(H,U,f)=  0.744E+00 0.301E+00 0.000E+00 ort(H,U,f) = 0.156E+00-0.211E+00 0.000E+00
CGA:   8    -0.240875473483E+04   -0.19089E+01   -0.19043E+01   480   0.104E+01-0.553E-01
 gam= 0.138 trial= 0.408  step= 0.781 mean= 0.408
 gam= 0.286 g(H,U,f)=  0.212E+00 0.869E-01 0.000E+00 ort(H,U,f) =-0.646E-01 0.241E-01 0.000E+00
CGA:   9    -0.240915527895E+04   -0.40054E+00   -0.40460E+00   480   0.299E+00-0.405E-01
 gam= 0.286 trial= 0.427  step= 0.706 mean= 0.427
 gam= 0.402 g(H,U,f)=  0.807E-01 0.391E-01 0.000E+00 ort(H,U,f) =-0.226E-01 0.129E-01 0.000E+00
CGA:  10    -0.240925580462E+04   -0.10053E+00   -0.10122E+00   480   0.120E+00-0.967E-02
 gam= 0.402 trial= 0.441  step= 0.870 mean= 0.441
 gam= 0.436 g(H,U,f)=  0.444E-01 0.781E-02 0.000E+00 ort(H,U,f) =-0.101E-01 0.235E-02 0.000E+00
CGA:  11    -0.240930477057E+04   -0.48966E-01   -0.50463E-01   480   0.522E-01-0.774E-02
 gam= 0.436 trial= 0.462  step= 0.887 mean= 0.462
 gam= 0.563 g(H,U,f)=  0.212E-01 0.820E-02 0.000E+00 ort(H,U,f) =-0.348E-02 0.186E-02 0.000E+00
CGA:  12    -0.240932627837E+04   -0.21508E-01   -0.21669E-01   480   0.294E-01-0.162E-02
 gam= 0.563 trial= 0.483  step= 0.828 mean= 0.483
 gam= 0.599 g(H,U,f)=  0.118E-01 0.580E-02 0.000E+00 ort(H,U,f) =-0.498E-02 0.416E-02 0.000E+00
CGA:  13    -0.240933796019E+04   -0.11682E-01   -0.11794E-01   480   0.176E-01-0.814E-03
 gam= 0.599 trial= 0.501  step= 1.089 mean= 0.501
 gam= 0.943 g(H,U,f)=  0.107E-01 0.592E-02 0.000E+00 ort(H,U,f) =-0.671E-02 0.625E-02 0.000E+00
CGA:  14    -0.240934723995E+04   -0.92798E-02   -0.93268E-02   480   0.166E-01-0.460E-03
 gam= 0.943 trial= 0.530  step= 1.021 mean= 0.530
 gam= 1.172 g(H,U,f)=  0.154E-01 0.403E-02 0.000E+00 ort(H,U,f) =-0.916E-02 0.862E-02 0.000E+00
CGA:  15    -0.240935541238E+04   -0.81724E-02   -0.82554E-02   480   0.195E-01-0.537E-03
 gam= 1.172 trial= 0.555  step= 0.920 mean= 0.555
 gam= 1.011 g(H,U,f)=  0.169E-01 0.276E-02 0.000E+00 ort(H,U,f) =-0.101E-01 0.850E-02 0.000E+00
CGA:  16    -0.240936379435E+04   -0.83820E-02   -0.86639E-02   480   0.197E-01-0.156E-02
 gam= 1.011 trial= 0.573  step= 0.697 mean= 0.573
 gam= 0.893 g(H,U,f)=  0.151E-01 0.245E-02 0.000E+00 ort(H,U,f) =-0.536E-02 0.497E-02 0.000E+00
CGA:  17    -0.240937007524E+04   -0.62809E-02   -0.63079E-02   480   0.176E-01-0.397E-03
 gam= 0.893 trial= 0.579  step= 0.570 mean= 0.579
 gam= 0.720 g(H,U,f)=  0.113E-01 0.133E-02 0.000E+00 ort(H,U,f) =-0.984E-03 0.849E-03 0.000E+00
CGA:  18    -0.240937498022E+04   -0.49050E-02   -0.49041E-02   480   0.126E-01-0.135E-03
 gam= 0.720 trial= 0.579  step= 0.548 mean= 0.579
 gam= 0.684 g(H,U,f)=  0.754E-02 0.110E-02 0.000E+00 ort(H,U,f) = 0.143E-02-0.138E-02 0.000E+00
CGA:  19    -0.240937841369E+04   -0.34335E-02   -0.34350E-02   480   0.864E-02 0.436E-04
 gam= 0.684 trial= 0.577  step= 0.494 mean= 0.577
 gam= 0.614 g(H,U,f)=  0.468E-02 0.630E-03 0.000E+00 ort(H,U,f) = 0.155E-02-0.148E-02 0.000E+00
CGA:  20    -0.240938055268E+04   -0.21390E-02   -0.21428E-02   480   0.531E-02 0.727E-04
 gam= 0.614 trial= 0.573  step= 0.512 mean= 0.573
 gam= 0.660 g(H,U,f)=  0.293E-02 0.575E-03 0.000E+00 ort(H,U,f) = 0.107E-02-0.102E-02 0.000E+00
CGA:  21    -0.240938191979E+04   -0.13671E-02   -0.13695E-02   480   0.350E-02 0.581E-04
 gam= 0.660 trial= 0.570  step= 0.480 mean= 0.570
 gam= 0.610 g(H,U,f)=  0.169E-02 0.444E-03 0.000E+00 ort(H,U,f) = 0.505E-03-0.479E-03 0.000E+00
CGA:  22    -0.240938276850E+04   -0.84871E-03   -0.84967E-03   480   0.214E-02 0.260E-04
 gam= 0.610 trial= 0.565  step= 0.505 mean= 0.565
 gam= 0.707 g(H,U,f)=  0.111E-02 0.401E-03 0.000E+00 ort(H,U,f) = 0.386E-04-0.288E-04 0.000E+00
CGA:  23    -0.240938331146E+04   -0.54296E-03   -0.54315E-03   480   0.151E-02 0.979E-05
 gam= 0.707 trial= 0.562  step= 0.502 mean= 0.562
 gam= 0.720 g(H,U,f)=  0.772E-03 0.316E-03 0.000E+00 ort(H,U,f) =-0.248E-03 0.250E-03 0.000E+00
CGA:  24    -0.240938369250E+04   -0.38104E-03   -0.38089E-03   480   0.109E-02 0.187E-05
 gam= 0.720 trial= 0.559  step= 0.532 mean= 0.559
 gam= 0.857 g(H,U,f)=  0.668E-03 0.264E-03 0.000E+00 ort(H,U,f) =-0.356E-03 0.358E-03 0.000E+00
CGA:  25    -0.240938398218E+04   -0.28969E-03   -0.28969E-03   480   0.932E-03 0.134E-05
 gam= 0.857 trial= 0.558  step= 0.568 mean= 0.558
 gam= 0.930 g(H,U,f)=  0.662E-03 0.205E-03 0.000E+00 ort(H,U,f) =-0.395E-03 0.395E-03 0.000E+00
CGA:  26    -0.240938424722E+04   -0.26504E-03   -0.26504E-03   480   0.867E-03 0.724E-07
 gam= 0.930 trial= 0.558  step= 0.587 mean= 0.558
 gam= 0.979 g(H,U,f)=  0.676E-03 0.172E-03 0.000E+00 ort(H,U,f) =-0.372E-03 0.369E-03 0.000E+00
CGA:  27    -0.240938450148E+04   -0.25425E-03   -0.25430E-03   480   0.848E-03-0.292E-05
 gam= 0.979 trial= 0.560  step= 0.597 mean= 0.560
 gam= 0.981 g(H,U,f)=  0.696E-03 0.136E-03 0.000E+00 ort(H,U,f) =-0.316E-03 0.313E-03 0.000E+00
CGA:  28    -0.240938475392E+04   -0.25244E-03   -0.25250E-03   480   0.832E-03-0.327E-05
 gam= 0.981 trial= 0.562  step= 0.571 mean= 0.562
 gam= 0.890 g(H,U,f)=  0.648E-03 0.928E-04 0.000E+00 ort(H,U,f) =-0.207E-03 0.205E-03 0.000E+00
CGA:  29    -0.240938499041E+04   -0.23649E-03   -0.23650E-03   480   0.741E-03-0.265E-05
 gam= 0.890 trial= 0.562  step= 0.524 mean= 0.562
 gam= 0.814 g(H,U,f)=  0.540E-03 0.633E-04 0.000E+00 ort(H,U,f) =-0.692E-04 0.696E-04 0.000E+00
CGA:  30    -0.240938518386E+04   -0.19345E-03   -0.19342E-03   480   0.603E-03 0.362E-06
 gam= 0.814 trial= 0.560  step= 0.506 mean= 0.560
 gam= 0.772 g(H,U,f)=  0.415E-03 0.504E-04 0.000E+00 ort(H,U,f) = 0.254E-04-0.231E-04 0.000E+00
CGA:  31    -0.240938533633E+04   -0.15247E-03   -0.15251E-03   480   0.466E-03 0.227E-05
 gam= 0.772 trial= 0.558  step= 0.463 mean= 0.558
 gam= 0.687 g(H,U,f)=  0.292E-03 0.280E-04 0.000E+00 ort(H,U,f) = 0.691E-04-0.674E-04 0.000E+00
CGA:  32    -0.240938544445E+04   -0.10813E-03   -0.10821E-03   480   0.320E-03 0.172E-05
 gam= 0.687 trial= 0.553  step= 0.465 mean= 0.553
 gam= 0.732 g(H,U,f)=  0.204E-03 0.304E-04 0.000E+00 ort(H,U,f) = 0.739E-04-0.743E-04 0.000E+00
CGA:  33    -0.240938551915E+04   -0.74694E-04   -0.74698E-04   480   0.234E-03-0.395E-06
 gam= 0.732 trial= 0.548  step= 0.454 mean= 0.548
 gam= 0.691 g(H,U,f)=  0.131E-03 0.304E-04 0.000E+00 ort(H,U,f) = 0.446E-04-0.470E-04 0.000E+00
CGA:  34    -0.240938557237E+04   -0.53217E-04   -0.53111E-04   480   0.162E-03-0.232E-05
 gam= 0.691 trial= 0.544  step= 0.454 mean= 0.544
 gam= 0.760 g(H,U,f)=  0.934E-04 0.296E-04 0.000E+00 ort(H,U,f) = 0.117E-04-0.141E-04 0.000E+00
CGA:  35    -0.240938560880E+04   -0.36435E-04   -0.36331E-04   480   0.123E-03-0.236E-05
 gam= 0.760 trial= 0.539  step= 0.479 mean= 0.539
 gam= 0.806 g(H,U,f)=  0.716E-04 0.275E-04 0.000E+00 ort(H,U,f) =-0.130E-04 0.118E-04 0.000E+00
CGA:  36    -0.240938563785E+04   -0.29051E-04   -0.29013E-04   480   0.991E-04-0.129E-05
 gam= 0.806 trial= 0.536  step= 0.472 mean= 0.536
 gam= 0.000 g(H,U,f)=  0.602E-04 0.229E-04 0.000E+00 ort(H,U,f) =-0.276E-04 0.279E-04 0.000E+00
SDA:  37    -0.240938566101E+04   -0.23157E-04   -0.23162E-04   480   0.831E-04 0.252E-06
 gam= 0.000 trial= 0.533  step= 1.385 mean= 0.533
 gam= 0.579 g(H,U,f)=  0.305E-04 0.176E-04 0.000E+00 ort(H,U,f) =-0.126E-04 0.156E-04 0.000E+00
CGA:  38    -0.240938571995E+04   -0.58946E-04   -0.57564E-04   480   0.482E-04 0.303E-05
 gam= 0.579 trial= 0.576  step= 1.162 mean= 0.576
 gam= 1.101 g(H,U,f)=  0.327E-04 0.203E-04 0.000E+00 ort(H,U,f) =-0.141E-04 0.151E-04 0.000E+00
CGA:  39    -0.240938574925E+04   -0.29300E-04   -0.29001E-04   480   0.530E-04 0.102E-05
 gam= 1.101 trial= 0.605  step= 1.010 mean= 0.605
 gam= 0.831 g(H,U,f)=  0.311E-04 0.129E-04 0.000E+00 ort(H,U,f) =-0.188E-04 0.185E-04 0.000E+00
CGA:  40    -0.240938577654E+04   -0.27281E-04   -0.27343E-04   480   0.441E-04-0.337E-06
 gam= 0.831 trial= 0.625  step= 1.110 mean= 0.625
 gam= 0.730 g(H,U,f)=  0.255E-04 0.666E-05 0.000E+00 ort(H,U,f) =-0.135E-04 0.135E-04 0.000E+00
CGA:  41    -0.240938580086E+04   -0.24325E-04   -0.24310E-04   480   0.322E-04 0.472E-07
 gam= 0.730 trial= 0.649  step= 1.038 mean= 0.649
 gam= 0.656 g(H,U,f)=  0.160E-04 0.508E-05 0.000E+00 ort(H,U,f) =-0.542E-05 0.538E-05 0.000E+00
CGA:  42    -0.240938581758E+04   -0.16718E-04   -0.16724E-04   480   0.211E-04-0.367E-07
 gam= 0.656 trial= 0.669  step= 0.944 mean= 0.669
 gam= 0.660 g(H,U,f)=  0.108E-04 0.312E-05 0.000E+00 ort(H,U,f) =-0.247E-05 0.250E-05 0.000E+00
CGA:  43    -0.240938582754E+04   -0.99631E-05   -0.99593E-05   480   0.139E-04 0.275E-07
 gam= 0.660 trial= 0.683  step= 1.007 mean= 0.683
   1 F= -.24093858E+04 E0= -.24093858E+04  d E =-.240939E+04  mag=     2.0000
 BRION: g(F)=  0.930E+00 g(S)=  0.000E+00
 bond charge predicted
 writing wavefunctions

 ----------------------------------------------------------------------------- 
|                                                                             |
|           W    W    AA    RRRRR   N    N  II  N    N   GGGG   !!!           |
|           W    W   A  A   R    R  NN   N  II  NN   N  G    G  !!!           |
|           W    W  A    A  R    R  N N  N  II  N N  N  G       !!!           |
|           W WW W  AAAAAA  RRRRR   N  N N  II  N  N N  G  GGG   !            |
|           WW  WW  A    A  R   R   N   NN  II  N   NN  G    G                |
|           W    W  A    A  R    R  N    N  II  N    N   GGGG   !!!           |
|                                                                             |
|      ALGO=A and IALGO=5X tend to fail with the tetrahedron method           |
|      (e.g. Bloechls method ISMEAR=-5 is not variational)                    |
|      please switch to IMSEAR=0-n, except for DOS calculations               |
|      For DOS calculations use IALGO=53 after preconverging with ISMEAR>=0   |
|          I HOPE YOU KNOW, WHAT YOU ARE  DOING                               |
|                                                                             |
 ----------------------------------------------------------------------------- 

       N       E                     dE             d eps       ncg     rms          ort
 gam= 0.000 g(H,U,f)=  0.243E+02 0.189E+01 0.000E+00 ort(H,U,f) = 0.000E+00 0.000E+00 0.000E+00
SDA:   1    -0.239700929587E+04    0.12377E+02    0.00000E+00   480   0.262E+02 0.000E+00
 gam= 0.000 trial= 0.699  step= 0.752 mean= 0.699
 gam= 0.277 g(H,U,f)=  0.565E+01 0.161E+01 0.000E+00 ort(H,U,f) = 0.284E+00-0.851E+00 0.000E+00
CGA:   2    -0.240685814615E+04   -0.98489E+01   -0.98496E+01   480   0.727E+01-0.566E+00
 gam= 0.277 trial= 0.702  step= 0.448 mean= 0.702
 gam= 0.344 g(H,U,f)=  0.220E+01 0.294E+00 0.000E+00 ort(H,U,f) = 0.227E+01 0.182E-01 0.000E+00
CGA:   3    -0.240793998100E+04   -0.10818E+01   -0.15911E+01   480   0.250E+01 0.229E+01
 gam= 0.344 trial= 0.689  step= 0.494 mean= 0.689
 gam= 0.491 g(H,U,f)=  0.102E+01 0.205E+00 0.000E+00 ort(H,U,f) = 0.538E+00 0.151E-02 0.000E+00
CGA:   4    -0.240869012605E+04   -0.75015E+00   -0.81192E+00   480   0.123E+01 0.539E+00
 gam= 0.491 trial= 0.679  step= 0.376 mean= 0.679
 gam= 0.496 g(H,U,f)=  0.552E+00 0.568E-01 0.000E+00 ort(H,U,f) = 0.131E+00 0.278E-01 0.000E+00
CGA:   5    -0.240892966802E+04   -0.23954E+00   -0.28060E+00   480   0.609E+00 0.159E+00
 gam= 0.496 trial= 0.664  step= 0.356 mean= 0.664
 gam= 0.648 g(H,U,f)=  0.355E+00 0.396E-01 0.000E+00 ort(H,U,f) = 0.122E+00-0.691E-02 0.000E+00
CGA:   6    -0.240902381536E+04   -0.94147E-01   -0.12237E+00   480   0.394E+00 0.115E+00
 gam= 0.648 trial= 0.649  step= 0.320 mean= 0.649
 gam= 0.783 g(H,U,f)=  0.282E+00 0.269E-01 0.000E+00 ort(H,U,f) = 0.136E+00-0.260E-02 0.000E+00
CGA:   7    -0.240906438461E+04   -0.40569E-01   -0.75060E-01   480   0.309E+00 0.134E+00
 gam= 0.783 trial= 0.632  step= 0.264 mean= 0.632
 gam= 0.861 g(H,U,f)=  0.244E+00 0.222E-01 0.000E+00 ort(H,U,f) = 0.129E+00-0.299E-02 0.000E+00
CGA:   8    -0.240908728787E+04   -0.22903E-01   -0.54543E-01   480   0.266E+00 0.126E+00
 gam= 0.861 trial= 0.614  step= 0.208 mean= 0.614
 gam= 0.990 g(H,U,f)=  0.241E+00 0.220E-01 0.000E+00 ort(H,U,f) = 0.132E+00 0.496E-03 0.000E+00
CGA:   9    -0.240908751218E+04   -0.22432E-03   -0.38962E-01   480   0.263E+00 0.132E+00
 gam= 0.990 trial= 0.593  step= 0.158 mean= 0.593
 gam= 0.000 g(H,U,f)=  0.293E+00 0.209E-01 0.000E+00 ort(H,U,f) = 0.174E+00 0.578E-02 0.000E+00
CGA:  10    -0.240905935243E+04    0.28160E-01   -0.31024E-01   480   0.314E+00 0.179E+00
 gam= 0.000 trial= 0.572  step= 0.801 mean= 0.572
 gam= 0.231 g(H,U,f)=  0.565E-01 0.159E-01 0.000E+00 ort(H,U,f) =-0.197E-02-0.616E-02 0.000E+00
CGA:  11    -0.240918449598E+04   -0.12514E+00   -0.12571E+00   480   0.724E-01-0.813E-02
 gam= 0.231 trial= 0.583  step= 0.429 mean= 0.583
 gam= 0.174 g(H,U,f)=  0.114E-01 0.118E-02 0.000E+00 ort(H,U,f) = 0.307E-02-0.165E-02 0.000E+00
CGA:  12    -0.240919952085E+04   -0.15025E-01   -0.15126E-01   480   0.126E-01 0.142E-02
 gam= 0.174 trial= 0.575  step= 0.728 mean= 0.575
 gam= 0.208 g(H,U,f)=  0.232E-02 0.308E-03 0.000E+00 ort(H,U,f) =-0.203E-03-0.110E-03 0.000E+00
CGA:  13    -0.240920418734E+04   -0.46665E-02   -0.46805E-02   480   0.263E-02-0.312E-03
 gam= 0.208 trial= 0.583  step= 0.542 mean= 0.583
 gam= 0.315 g(H,U,f)=  0.741E-03 0.854E-04 0.000E+00 ort(H,U,f) = 0.776E-04-0.811E-04 0.000E+00
CGA:  14    -0.240920488169E+04   -0.69435E-03   -0.69404E-03   480   0.826E-03-0.343E-05
 gam= 0.315 trial= 0.581  step= 0.736 mean= 0.581
 gam= 0.364 g(H,U,f)=  0.270E-03 0.308E-04 0.000E+00 ort(H,U,f) =-0.166E-06-0.112E-04 0.000E+00
CGA:  15    -0.240920518455E+04   -0.30286E-03   -0.30351E-03   480   0.301E-03-0.114E-04
 gam= 0.364 trial= 0.589  step= 0.595 mean= 0.589
 gam= 0.371 g(H,U,f)=  0.999E-04 0.116E-04 0.000E+00 ort(H,U,f) = 0.786E-05-0.100E-04 0.000E+00
CGA:  16    -0.240920527278E+04   -0.88230E-04   -0.88243E-04   480   0.112E-03-0.219E-05
 gam= 0.371 trial= 0.589  step= 0.647 mean= 0.589
 gam= 0.323 g(H,U,f)=  0.335E-04 0.252E-05 0.000E+00 ort(H,U,f) =-0.495E-07-0.105E-05 0.000E+00
CGA:  17    -0.240920530859E+04   -0.35805E-04   -0.35849E-04   480   0.360E-04-0.110E-05
 gam= 0.323 trial= 0.592  step= 0.683 mean= 0.592
 gam= 0.459 g(H,U,f)=  0.148E-04 0.177E-05 0.000E+00 ort(H,U,f) = 0.733E-06-0.997E-06 0.000E+00
CGA:  18    -0.240920532073E+04   -0.12142E-04   -0.12157E-04   480   0.165E-04-0.264E-06
 gam= 0.459 trial= 0.597  step= 0.623 mean= 0.597
 gam= 0.406 g(H,U,f)=  0.621E-05 0.489E-06 0.000E+00 ort(H,U,f) = 0.380E-06-0.413E-06 0.000E+00
CGA:  19    -0.240920532584E+04   -0.51114E-05   -0.51124E-05   480   0.670E-05-0.334E-07
 gam= 0.406 trial= 0.598  step= 0.716 mean= 0.598
   2 F= -.24092053E+04 E0= -.24092053E+04  d E =0.180502E+00  mag=     2.0000
 BRION: g(F)=  0.311E+01 g(S)=  0.000E+00 retain N=  1 mean eig= 0.34
 eig:   0.337
 bond charge predicted
 writing wavefunctions

 ----------------------------------------------------------------------------- 
|                                                                             |
|           W    W    AA    RRRRR   N    N  II  N    N   GGGG   !!!           |
|           W    W   A  A   R    R  NN   N  II  NN   N  G    G  !!!           |
|           W    W  A    A  R    R  N N  N  II  N N  N  G       !!!           |
|           W WW W  AAAAAA  RRRRR   N  N N  II  N  N N  G  GGG   !            |
|           WW  WW  A    A  R   R   N   NN  II  N   NN  G    G                |
|           W    W  A    A  R    R  N    N  II  N    N   GGGG   !!!           |
|                                                                             |
|      ALGO=A and IALGO=5X tend to fail with the tetrahedron method           |
|      (e.g. Bloechls method ISMEAR=-5 is not variational)                    |
|      please switch to IMSEAR=0-n, except for DOS calculations               |
|      For DOS calculations use IALGO=53 after preconverging with ISMEAR>=0   |
|          I HOPE YOU KNOW, WHAT YOU ARE  DOING                               |
|                                                                             |
 ----------------------------------------------------------------------------- 

       N       E                     dE             d eps       ncg     rms          ort
 gam= 0.000 g(H,U,f)=  0.104E+02 0.570E+00 0.000E+00 ort(H,U,f) = 0.000E+00 0.000E+00 0.000E+00
SDA:   1    -0.240455064450E+04    0.46547E+01    0.00000E+00   480   0.110E+02 0.000E+00
 gam= 0.000 trial= 0.604  step= 0.797 mean= 0.604
 gam= 0.188 g(H,U,f)=  0.181E+01 0.257E+00 0.000E+00 ort(H,U,f) =-0.426E+00-0.235E+00 0.000E+00
CGA:   2    -0.240886538531E+04   -0.43147E+01   -0.43672E+01   480   0.206E+01-0.662E+00
 gam= 0.188 trial= 0.613  step= 0.598 mean= 0.613
 gam= 0.204 g(H,U,f)=  0.374E+00 0.478E-01 0.000E+00 ort(H,U,f) = 0.754E-01-0.305E-01 0.000E+00
CGA:   3    -0.240944467637E+04   -0.57929E+00   -0.57990E+00   480   0.421E+00 0.449E-01
 gam= 0.204 trial= 0.613  step= 0.641 mean= 0.613
 gam= 0.314 g(H,U,f)=  0.120E+00 0.127E-01 0.000E+00 ort(H,U,f) = 0.456E-02-0.672E-02 0.000E+00
CGA:   4    -0.240958272941E+04   -0.13805E+00   -0.13809E+00   480   0.133E+00-0.216E-02
 gam= 0.314 trial= 0.614  step= 0.616 mean= 0.614
 gam= 0.292 g(H,U,f)=  0.361E-01 0.251E-02 0.000E+00 ort(H,U,f) = 0.257E-02-0.192E-02 0.000E+00
CGA:   5    -0.240962336024E+04   -0.40631E-01   -0.40629E-01   480   0.387E-01 0.657E-03
 gam= 0.292 trial= 0.614  step= 0.646 mean= 0.614
 gam= 0.376 g(H,U,f)=  0.134E-01 0.112E-02 0.000E+00 ort(H,U,f) = 0.276E-03-0.599E-03 0.000E+00
CGA:   6    -0.240963590180E+04   -0.12542E-01   -0.12549E-01   480   0.145E-01-0.323E-03
 gam= 0.376 trial= 0.616  step= 0.631 mean= 0.616
 gam= 0.361 g(H,U,f)=  0.488E-02 0.372E-03 0.000E+00 ort(H,U,f) = 0.131E-04-0.123E-03 0.000E+00
CGA:   7    -0.240964044975E+04   -0.45479E-02   -0.45495E-02   480   0.525E-02-0.110E-03
 gam= 0.361 trial= 0.617  step= 0.665 mean= 0.617
 gam= 0.395 g(H,U,f)=  0.189E-02 0.182E-03 0.000E+00 ort(H,U,f) = 0.620E-06-0.320E-04 0.000E+00
CGA:   8    -0.240964218180E+04   -0.17321E-02   -0.17330E-02   480   0.208E-02-0.313E-04
 gam= 0.395 trial= 0.619  step= 0.619 mean= 0.619
 gam= 0.393 g(H,U,f)=  0.768E-03 0.484E-04 0.000E+00 ort(H,U,f) = 0.296E-04-0.375E-04 0.000E+00
CGA:   9    -0.240964282106E+04   -0.63925E-03   -0.63925E-03   480   0.816E-03-0.788E-05
 gam= 0.393 trial= 0.619  step= 0.680 mean= 0.619
 gam= 0.403 g(H,U,f)=  0.301E-03 0.277E-04 0.000E+00 ort(H,U,f) =-0.915E-06-0.566E-05 0.000E+00
CGA:  10    -0.240964309735E+04   -0.27630E-03   -0.27655E-03   480   0.329E-03-0.658E-05
 gam= 0.403 trial= 0.622  step= 0.624 mean= 0.622
 gam= 0.477 g(H,U,f)=  0.143E-03 0.134E-04 0.000E+00 ort(H,U,f) =-0.652E-06-0.695E-06 0.000E+00
CGA:  11    -0.240964319913E+04   -0.10177E-03   -0.10178E-03   480   0.157E-03-0.135E-05
 gam= 0.477 trial= 0.622  step= 0.625 mean= 0.622
 gam= 0.436 g(H,U,f)=  0.648E-04 0.361E-05 0.000E+00 ort(H,U,f) =-0.135E-05 0.919E-06 0.000E+00
CGA:  12    -0.240964324796E+04   -0.48832E-04   -0.48834E-04   480   0.684E-04-0.432E-06
 gam= 0.436 trial= 0.622  step= 0.639 mean= 0.622
 gam= 0.512 g(H,U,f)=  0.321E-04 0.292E-05 0.000E+00 ort(H,U,f) = 0.179E-06-0.515E-06 0.000E+00
CGA:  13    -0.240964326977E+04   -0.21811E-04   -0.21814E-04   480   0.350E-04-0.336E-06
 gam= 0.512 trial= 0.623  step= 0.597 mean= 0.623
 gam= 0.468 g(H,U,f)=  0.152E-04 0.120E-05 0.000E+00 ort(H,U,f) =-0.519E-06 0.228E-06 0.000E+00
CGA:  14    -0.240964328018E+04   -0.10409E-04   -0.10404E-04   480   0.164E-04-0.291E-06
 gam= 0.468 trial= 0.622  step= 0.633 mean= 0.622
 gam= 0.496 g(H,U,f)=  0.756E-05 0.581E-06 0.000E+00 ort(H,U,f) =-0.520E-06 0.377E-06 0.000E+00
CGA:  15    -0.240964328533E+04   -0.51491E-05   -0.51502E-05   480   0.814E-05-0.143E-06
 gam= 0.496 trial= 0.622  step= 0.599 mean= 0.622
   3 F= -.24096433E+04 E0= -.24096433E+04  d E =-.437959E+00  mag=     2.0000
 BRION: g(F)=  0.182E+00 g(S)=  0.000E+00 retain N=  1 mean eig= 0.28
 eig:   0.284
 bond charge predicted
 writing wavefunctions

 ----------------------------------------------------------------------------- 
|                                                                             |
|           W    W    AA    RRRRR   N    N  II  N    N   GGGG   !!!           |
|           W    W   A  A   R    R  NN   N  II  NN   N  G    G  !!!           |
|           W    W  A    A  R    R  N N  N  II  N N  N  G       !!!           |
|           W WW W  AAAAAA  RRRRR   N  N N  II  N  N N  G  GGG   !            |
|           WW  WW  A    A  R   R   N   NN  II  N   NN  G    G                |
|           W    W  A    A  R    R  N    N  II  N    N   GGGG   !!!           |
|                                                                             |
|      ALGO=A and IALGO=5X tend to fail with the tetrahedron method           |
|      (e.g. Bloechls method ISMEAR=-5 is not variational)                    |
|      please switch to IMSEAR=0-n, except for DOS calculations               |
|      For DOS calculations use IALGO=53 after preconverging with ISMEAR>=0   |
|          I HOPE YOU KNOW, WHAT YOU ARE  DOING                               |
|                                                                             |
 ----------------------------------------------------------------------------- 

       N       E                     dE             d eps       ncg     rms          ort
 gam= 0.000 g(H,U,f)=  0.217E+01 0.169E+00 0.000E+00 ort(H,U,f) = 0.000E+00 0.000E+00 0.000E+00
SDA:   1    -0.240861066928E+04    0.10326E+01    0.00000E+00   480   0.233E+01 0.000E+00
 gam= 0.000 trial= 0.621  step= 0.703 mean= 0.621
 gam= 0.290 g(H,U,f)=  0.537E+00 0.140E+00 0.000E+00 ort(H,U,f) = 0.827E-01-0.103E+00 0.000E+00
CGA:   2    -0.240943047752E+04   -0.81981E+00   -0.81999E+00   480   0.677E+00-0.200E-01
 gam= 0.290 trial= 0.625  step= 0.517 mean= 0.625
 gam= 0.172 g(H,U,f)=  0.983E-01 0.184E-01 0.000E+00 ort(H,U,f) = 0.455E-01-0.158E-01 0.000E+00
CGA:   3    -0.240960097591E+04   -0.17050E+00   -0.17337E+00   480   0.117E+00 0.297E-01
 gam= 0.172 trial= 0.620  step= 0.591 mean= 0.620
 gam= 0.219 g(H,U,f)=  0.230E-01 0.262E-02 0.000E+00 ort(H,U,f) = 0.107E-02-0.962E-03 0.000E+00
CGA:   4    -0.240963698393E+04   -0.36008E-01   -0.36009E-01   480   0.256E-01 0.104E-03
 gam= 0.219 trial= 0.618  step= 0.704 mean= 0.618
 gam= 0.255 g(H,U,f)=  0.594E-02 0.584E-03 0.000E+00 ort(H,U,f) =-0.226E-04-0.161E-03 0.000E+00
CGA:   5    -0.240964599400E+04   -0.90101E-02   -0.90176E-02   480   0.653E-02-0.184E-03
 gam= 0.255 trial= 0.623  step= 0.686 mean= 0.623
 gam= 0.412 g(H,U,f)=  0.229E-02 0.397E-03 0.000E+00 ort(H,U,f) = 0.223E-03-0.246E-03 0.000E+00
CGA:   6    -0.240964821631E+04   -0.22223E-02   -0.22232E-02   480   0.269E-02-0.231E-04
 gam= 0.412 trial= 0.626  step= 0.615 mean= 0.626
 gam= 0.338 g(H,U,f)=  0.807E-03 0.102E-03 0.000E+00 ort(H,U,f) = 0.458E-04-0.574E-04 0.000E+00
CGA:   7    -0.240964904048E+04   -0.82417E-03   -0.82403E-03   480   0.909E-03-0.116E-04
 gam= 0.338 trial= 0.625  step= 0.726 mean= 0.625
 gam= 0.321 g(H,U,f)=  0.264E-03 0.280E-04 0.000E+00 ort(H,U,f) =-0.657E-05 0.280E-05 0.000E+00
CGA:   8    -0.240964936897E+04   -0.32850E-03   -0.32870E-03   480   0.292E-03-0.378E-05
 gam= 0.321 trial= 0.630  step= 0.702 mean= 0.630
 gam= 0.382 g(H,U,f)=  0.981E-04 0.133E-04 0.000E+00 ort(H,U,f) = 0.405E-05-0.487E-05 0.000E+00
CGA:   9    -0.240964947108E+04   -0.10211E-03   -0.10214E-03   480   0.111E-03-0.819E-06
 gam= 0.382 trial= 0.634  step= 0.695 mean= 0.634
 gam= 0.389 g(H,U,f)=  0.372E-04 0.619E-05 0.000E+00 ort(H,U,f) = 0.146E-05-0.168E-05 0.000E+00
CGA:  10    -0.240964950968E+04   -0.38594E-04   -0.38605E-04   480   0.434E-04-0.223E-06
 gam= 0.389 trial= 0.637  step= 0.704 mean= 0.637
 gam= 0.438 g(H,U,f)=  0.166E-04 0.245E-05 0.000E+00 ort(H,U,f) =-0.664E-06 0.645E-06 0.000E+00
CGA:  11    -0.240964952492E+04   -0.15238E-04   -0.15239E-04   480   0.190E-04-0.184E-07
 gam= 0.438 trial= 0.640  step= 0.746 mean= 0.640
 gam= 0.433 g(H,U,f)=  0.731E-05 0.911E-06 0.000E+00 ort(H,U,f) =-0.781E-06 0.571E-06 0.000E+00
CGA:  12    -0.240964953199E+04   -0.70716E-05   -0.70831E-05   480   0.822E-05-0.210E-06
 gam= 0.433 trial= 0.646  step= 0.810 mean= 0.646
   4 F= -.24096495E+04 E0= -.24096495E+04  d E =-.624666E-02  mag=     2.0000
 BRION: g(F)=  0.198E+00 g(S)=  0.000E+00 retain N=  2 mean eig= 0.14
 eig:   0.189  0.097
 bond charge predicted
 writing wavefunctions

 ----------------------------------------------------------------------------- 
|                                                                             |
|           W    W    AA    RRRRR   N    N  II  N    N   GGGG   !!!           |
|           W    W   A  A   R    R  NN   N  II  NN   N  G    G  !!!           |
|           W    W  A    A  R    R  N N  N  II  N N  N  G       !!!           |
|           W WW W  AAAAAA  RRRRR   N  N N  II  N  N N  G  GGG   !            |
|           WW  WW  A    A  R   R   N   NN  II  N   NN  G    G                |
|           W    W  A    A  R    R  N    N  II  N    N   GGGG   !!!           |
|                                                                             |
|      ALGO=A and IALGO=5X tend to fail with the tetrahedron method           |
|      (e.g. Bloechls method ISMEAR=-5 is not variational)                    |
|      please switch to IMSEAR=0-n, except for DOS calculations               |
|      For DOS calculations use IALGO=53 after preconverging with ISMEAR>=0   |
|          I HOPE YOU KNOW, WHAT YOU ARE  DOING                               |
|                                                                             |
 ----------------------------------------------------------------------------- 

       N       E                     dE             d eps       ncg     rms          ort
 gam= 0.000 g(H,U,f)=  0.719E+00 0.374E-01 0.000E+00 ort(H,U,f) = 0.000E+00 0.000E+00 0.000E+00
SDA:   1    -0.240932601247E+04    0.32351E+00    0.00000E+00   480   0.756E+00 0.000E+00
 gam= 0.000 trial= 0.654  step= 0.796 mean= 0.654
 gam= 0.203 g(H,U,f)=  0.129E+00 0.242E-01 0.000E+00 ort(H,U,f) = 0.940E-02-0.192E-01 0.000E+00
CGA:   2    -0.240962648619E+04   -0.30047E+00   -0.30099E+00   480   0.154E+00-0.976E-02
 gam= 0.203 trial= 0.661  step= 0.572 mean= 0.661
 gam= 0.167 g(H,U,f)=  0.214E-01 0.434E-02 0.000E+00 ort(H,U,f) = 0.633E-02-0.452E-02 0.000E+00
CGA:   3    -0.240966969901E+04   -0.43213E-01   -0.43375E-01   480   0.257E-01 0.180E-02
 gam= 0.167 trial= 0.657  step= 0.576 mean= 0.657
 gam= 0.225 g(H,U,f)=  0.498E-02 0.792E-03 0.000E+00 ort(H,U,f) = 0.722E-03-0.606E-03 0.000E+00
CGA:   4    -0.240967718206E+04   -0.74831E-02   -0.74900E-02   480   0.578E-02 0.116E-03
 gam= 0.225 trial= 0.653  step= 0.669 mean= 0.653
 gam= 0.253 g(H,U,f)=  0.134E-02 0.123E-03 0.000E+00 ort(H,U,f) = 0.110E-03-0.114E-03 0.000E+00
CGA:   5    -0.240967912343E+04   -0.19414E-02   -0.19414E-02   480   0.146E-02-0.417E-05
 gam= 0.253 trial= 0.653  step= 0.772 mean= 0.653
 gam= 0.351 g(H,U,f)=  0.459E-03 0.536E-04 0.000E+00 ort(H,U,f) = 0.288E-04-0.347E-04 0.000E+00
CGA:   6    -0.240967968689E+04   -0.56345E-03   -0.56377E-03   480   0.513E-03-0.590E-05
 gam= 0.351 trial= 0.659  step= 0.771 mean= 0.659
 gam= 0.385 g(H,U,f)=  0.173E-03 0.243E-04 0.000E+00 ort(H,U,f) = 0.130E-04-0.144E-04 0.000E+00
CGA:   7    -0.240967988370E+04   -0.19681E-03   -0.19690E-03   480   0.198E-03-0.137E-05
 gam= 0.385 trial= 0.665  step= 0.732 mean= 0.665
 gam= 0.318 g(H,U,f)=  0.560E-04 0.675E-05 0.000E+00 ort(H,U,f) = 0.456E-05-0.442E-05 0.000E+00
CGA:   8    -0.240967995586E+04   -0.72164E-04   -0.72156E-04   480   0.628E-04 0.138E-06
 gam= 0.318 trial= 0.668  step= 0.726 mean= 0.668
 gam= 0.374 g(H,U,f)=  0.204E-04 0.309E-05 0.000E+00 ort(H,U,f) = 0.329E-05-0.306E-05 0.000E+00
CGA:   9    -0.240967997869E+04   -0.22831E-04   -0.22826E-04   480   0.235E-04 0.227E-06
 gam= 0.374 trial= 0.671  step= 0.709 mean= 0.671
 gam= 0.371 g(H,U,f)=  0.776E-05 0.935E-06 0.000E+00 ort(H,U,f) = 0.776E-06-0.822E-06 0.000E+00
CGA:  10    -0.240967998704E+04   -0.83441E-05   -0.83450E-05   480   0.870E-05-0.461E-07
 gam= 0.371 trial= 0.673  step= 0.877 mean= 0.673
   5 F= -.24096800E+04 E0= -.24096800E+04  d E =-.304550E-01  mag=     2.0000
 BRION: g(F)=  0.176E-01 g(S)=  0.000E+00 retain N=  2 mean eig= 2.22
 eig:   0.296  4.145
 bond charge predicted
 writing wavefunctions

 ----------------------------------------------------------------------------- 
|                                                                             |
|           W    W    AA    RRRRR   N    N  II  N    N   GGGG   !!!           |
|           W    W   A  A   R    R  NN   N  II  NN   N  G    G  !!!           |
|           W    W  A    A  R    R  N N  N  II  N N  N  G       !!!           |
|           W WW W  AAAAAA  RRRRR   N  N N  II  N  N N  G  GGG   !            |
|           WW  WW  A    A  R   R   N   NN  II  N   NN  G    G                |
|           W    W  A    A  R    R  N    N  II  N    N   GGGG   !!!           |
|                                                                             |
|      ALGO=A and IALGO=5X tend to fail with the tetrahedron method           |
|      (e.g. Bloechls method ISMEAR=-5 is not variational)                    |
|      please switch to IMSEAR=0-n, except for DOS calculations               |
|      For DOS calculations use IALGO=53 after preconverging with ISMEAR>=0   |
|          I HOPE YOU KNOW, WHAT YOU ARE  DOING                               |
|                                                                             |
 ----------------------------------------------------------------------------- 

       N       E                     dE             d eps       ncg     rms          ort
 gam= 0.000 g(H,U,f)=  0.184E+00 0.148E-01 0.000E+00 ort(H,U,f) = 0.000E+00 0.000E+00 0.000E+00
SDA:   1    -0.240959337276E+04    0.86606E-01    0.00000E+00   480   0.198E+00 0.000E+00
 gam= 0.000 trial= 0.683  step= 0.699 mean= 0.683
 gam= 0.315 g(H,U,f)=  0.486E-01 0.139E-01 0.000E+00 ort(H,U,f) = 0.101E-01-0.994E-02 0.000E+00
CGA:   2    -0.240966271108E+04   -0.69338E-01   -0.69335E-01   480   0.624E-01 0.150E-03
 gam= 0.315 trial= 0.684  step= 0.533 mean= 0.684
 gam= 0.137 g(H,U,f)=  0.723E-02 0.134E-02 0.000E+00 ort(H,U,f) = 0.258E-02-0.156E-02 0.000E+00
CGA:   3    -0.240967917298E+04   -0.16462E-01   -0.16635E-01   480   0.858E-02 0.102E-02
 gam= 0.137 trial= 0.676  step= 0.614 mean= 0.676
 gam= 0.193 g(H,U,f)=  0.147E-02 0.188E-03 0.000E+00 ort(H,U,f) = 0.139E-03-0.125E-03 0.000E+00
CGA:   4    -0.240968184839E+04   -0.26754E-02   -0.26763E-02   480   0.166E-02 0.142E-04
 gam= 0.193 trial= 0.673  step= 0.766 mean= 0.673
 gam= 0.223 g(H,U,f)=  0.347E-03 0.216E-04 0.000E+00 ort(H,U,f) = 0.190E-04-0.216E-04 0.000E+00
CGA:   5    -0.240968248308E+04   -0.63469E-03   -0.63477E-03   480   0.369E-03-0.262E-05
 gam= 0.223 trial= 0.678  step= 0.927 mean= 0.678
 gam= 0.352 g(H,U,f)=  0.114E-03 0.164E-04 0.000E+00 ort(H,U,f) = 0.589E-05-0.760E-05 0.000E+00
CGA:   6    -0.240968265374E+04   -0.17067E-03   -0.17084E-03   480   0.130E-03-0.171E-05
 gam= 0.352 trial= 0.690  step= 0.780 mean= 0.690
 gam= 0.416 g(H,U,f)=  0.444E-04 0.972E-05 0.000E+00 ort(H,U,f) = 0.581E-05-0.589E-05 0.000E+00
CGA:   7    -0.240968270424E+04   -0.50496E-04   -0.50504E-04   480   0.541E-04-0.794E-07
 gam= 0.416 trial= 0.695  step= 0.641 mean= 0.695
 gam= 0.306 g(H,U,f)=  0.148E-04 0.179E-05 0.000E+00 ort(H,U,f) = 0.183E-05-0.190E-05 0.000E+00
CGA:   8    -0.240968272160E+04   -0.17357E-04   -0.17354E-04   480   0.166E-04-0.715E-07
 gam= 0.306 trial= 0.692  step= 0.782 mean= 0.692
 gam= 0.322 g(H,U,f)=  0.489E-05 0.443E-06 0.000E+00 ort(H,U,f) = 0.518E-06-0.457E-06 0.000E+00
CGA:   9    -0.240968272807E+04   -0.64730E-05   -0.64703E-05   480   0.534E-05 0.605E-07
 gam= 0.322 trial= 0.697  step= 0.888 mean= 0.697
   6 F= -.24096827E+04 E0= -.24096827E+04  d E =-.274103E-02  mag=     2.0000
 BRION: g(F)=  0.135E-01 g(S)=  0.000E+00 retain N=  3 mean eig= 2.06
 eig:   0.147  0.147  5.900
 bond charge predicted
 writing wavefunctions

 ----------------------------------------------------------------------------- 
|                                                                             |
|           W    W    AA    RRRRR   N    N  II  N    N   GGGG   !!!           |
|           W    W   A  A   R    R  NN   N  II  NN   N  G    G  !!!           |
|           W    W  A    A  R    R  N N  N  II  N N  N  G       !!!           |
|           W WW W  AAAAAA  RRRRR   N  N N  II  N  N N  G  GGG   !            |
|           WW  WW  A    A  R   R   N   NN  II  N   NN  G    G                |
|           W    W  A    A  R    R  N    N  II  N    N   GGGG   !!!           |
|                                                                             |
|      ALGO=A and IALGO=5X tend to fail with the tetrahedron method           |
|      (e.g. Bloechls method ISMEAR=-5 is not variational)                    |
|      please switch to IMSEAR=0-n, except for DOS calculations               |
|      For DOS calculations use IALGO=53 after preconverging with ISMEAR>=0   |
|          I HOPE YOU KNOW, WHAT YOU ARE  DOING                               |
|                                                                             |
 ----------------------------------------------------------------------------- 

       N       E                     dE             d eps       ncg     rms          ort
 gam= 0.000 g(H,U,f)=  0.620E-01 0.390E-02 0.000E+00 ort(H,U,f) = 0.000E+00 0.000E+00 0.000E+00
SDA:   1    -0.240965393159E+04    0.28790E-01    0.00000E+00   480   0.659E-01 0.000E+00
 gam= 0.000 trial= 0.706  step= 0.776 mean= 0.706
 gam= 0.244 g(H,U,f)=  0.134E-01 0.273E-02 0.000E+00 ort(H,U,f) = 0.218E-02-0.221E-02 0.000E+00
CGA:   2    -0.240967949383E+04   -0.25562E-01   -0.25560E-01   480   0.161E-01-0.321E-04
 gam= 0.244 trial= 0.710  step= 0.563 mean= 0.710
 gam= 0.160 g(H,U,f)=  0.210E-02 0.477E-03 0.000E+00 ort(H,U,f) = 0.541E-03-0.446E-03 0.000E+00
CGA:   3    -0.240968401381E+04   -0.45200E-02   -0.45333E-02   480   0.258E-02 0.954E-04
 gam= 0.160 trial= 0.702  step= 0.555 mean= 0.702
 gam= 0.201 g(H,U,f)=  0.453E-03 0.637E-04 0.000E+00 ort(H,U,f) = 0.731E-04-0.716E-04 0.000E+00
CGA:   4    -0.240968473282E+04   -0.71901E-03   -0.71913E-03   480   0.517E-03 0.150E-05
 gam= 0.201 trial= 0.695  step= 0.756 mean= 0.695
 gam= 0.235 g(H,U,f)=  0.110E-03 0.110E-04 0.000E+00 ort(H,U,f) = 0.807E-05-0.825E-05 0.000E+00
CGA:   5    -0.240968492820E+04   -0.19538E-03   -0.19538E-03   480   0.121E-03-0.183E-06
 gam= 0.235 trial= 0.698  step= 0.915 mean= 0.698
 gam= 0.338 g(H,U,f)=  0.368E-04 0.422E-05 0.000E+00 ort(H,U,f) = 0.245E-05-0.235E-05 0.000E+00
CGA:   6    -0.240968498367E+04   -0.55466E-04   -0.55452E-04   480   0.410E-04 0.104E-06
 gam= 0.338 trial= 0.709  step= 0.876 mean= 0.709
 gam= 0.377 g(H,U,f)=  0.136E-04 0.190E-05 0.000E+00 ort(H,U,f) = 0.325E-06-0.333E-06 0.000E+00
CGA:   7    -0.240968500165E+04   -0.17978E-04   -0.17979E-04   480   0.155E-04-0.817E-08
 gam= 0.377 trial= 0.717  step= 0.807 mean= 0.717
 gam= 0.380 g(H,U,f)=  0.519E-05 0.694E-06 0.000E+00 ort(H,U,f) = 0.289E-06-0.330E-06 0.000E+00
CGA:   8    -0.240968500789E+04   -0.62433E-05   -0.62452E-05   480   0.588E-05-0.401E-07
 gam= 0.380 trial= 0.722  step= 0.878 mean= 0.722
   7 F= -.24096850E+04 E0= -.24096850E+04  d E =-.227982E-02  mag=     2.0000
 BRION: g(F)=  0.319E-02 g(S)=  0.000E+00 retain N=  3 mean eig= 1.86
 eig:   0.244  0.244  5.083
 bond charge predicted
 writing wavefunctions

 ----------------------------------------------------------------------------- 
|                                                                             |
|           W    W    AA    RRRRR   N    N  II  N    N   GGGG   !!!           |
|           W    W   A  A   R    R  NN   N  II  NN   N  G    G  !!!           |
|           W    W  A    A  R    R  N N  N  II  N N  N  G       !!!           |
|           W WW W  AAAAAA  RRRRR   N  N N  II  N  N N  G  GGG   !            |
|           WW  WW  A    A  R   R   N   NN  II  N   NN  G    G                |
|           W    W  A    A  R    R  N    N  II  N    N   GGGG   !!!           |
|                                                                             |
|      ALGO=A and IALGO=5X tend to fail with the tetrahedron method           |
|      (e.g. Bloechls method ISMEAR=-5 is not variational)                    |
|      please switch to IMSEAR=0-n, except for DOS calculations               |
|      For DOS calculations use IALGO=53 after preconverging with ISMEAR>=0   |
|          I HOPE YOU KNOW, WHAT YOU ARE  DOING                               |
|                                                                             |
 ----------------------------------------------------------------------------- 

       N       E                     dE             d eps       ncg     rms          ort
 gam= 0.000 g(H,U,f)=  0.262E-01 0.202E-02 0.000E+00 ort(H,U,f) = 0.000E+00 0.000E+00 0.000E+00
SDA:   1    -0.240967239854E+04    0.12603E-01    0.00000E+00   480   0.282E-01 0.000E+00
 gam= 0.000 trial= 0.730  step= 0.740 mean= 0.730
 gam= 0.363 g(H,U,f)=  0.768E-02 0.254E-02 0.000E+00 ort(H,U,f) = 0.160E-02-0.157E-02 0.000E+00
CGA:   2    -0.240968282939E+04   -0.10431E-01   -0.10431E-01   480   0.102E-01 0.241E-04
 gam= 0.363 trial= 0.730  step= 0.491 mean= 0.730
 gam= 0.107 g(H,U,f)=  0.968E-03 0.127E-03 0.000E+00 ort(H,U,f) = 0.312E-03-0.224E-03 0.000E+00
CGA:   3    -0.240968531656E+04   -0.24872E-02   -0.25135E-02   480   0.110E-02 0.879E-04
 gam= 0.107 trial= 0.718  step= 0.751 mean= 0.718
 gam= 0.195 g(H,U,f)=  0.196E-03 0.172E-04 0.000E+00 ort(H,U,f) = 0.110E-04-0.126E-04 0.000E+00
CGA:   4    -0.240968573125E+04   -0.41469E-03   -0.41472E-03   480   0.213E-03-0.156E-05
 gam= 0.195 trial= 0.720  step= 0.825 mean= 0.720
 gam= 0.279 g(H,U,f)=  0.550E-04 0.447E-05 0.000E+00 ort(H,U,f) = 0.596E-05-0.580E-05 0.000E+00
CGA:   5    -0.240968581903E+04   -0.87778E-04   -0.87764E-04   480   0.595E-04 0.157E-06
 gam= 0.279 trial= 0.725  step= 0.880 mean= 0.725
 gam= 0.353 g(H,U,f)=  0.185E-04 0.252E-05 0.000E+00 ort(H,U,f) = 0.168E-05-0.172E-05 0.000E+00
CGA:   6    -0.240968584523E+04   -0.26207E-04   -0.26210E-04   480   0.210E-04-0.337E-07
 gam= 0.353 trial= 0.733  step= 0.811 mean= 0.733
 gam= 0.392 g(H,U,f)=  0.691E-05 0.131E-05 0.000E+00 ort(H,U,f) = 0.686E-06-0.783E-06 0.000E+00
CGA:   7    -0.240968585374E+04   -0.85041E-05   -0.85080E-05   480   0.822E-05-0.964E-07
 gam= 0.392 trial= 0.737  step= 0.707 mean= 0.737
   8 F= -.24096859E+04 E0= -.24096859E+04  d E =-.845845E-03  mag=     2.0000
 BRION: g(F)=  0.150E-02 g(S)=  0.000E+00 retain N=  2 mean eig= 0.47
 eig:   0.217  0.718
 bond charge predicted
 writing wavefunctions

 ----------------------------------------------------------------------------- 
|                                                                             |
|           W    W    AA    RRRRR   N    N  II  N    N   GGGG   !!!           |
|           W    W   A  A   R    R  NN   N  II  NN   N  G    G  !!!           |
|           W    W  A    A  R    R  N N  N  II  N N  N  G       !!!           |
|           W WW W  AAAAAA  RRRRR   N  N N  II  N  N N  G  GGG   !            |
|           WW  WW  A    A  R   R   N   NN  II  N   NN  G    G                |
|           W    W  A    A  R    R  N    N  II  N    N   GGGG   !!!           |
|                                                                             |
|      ALGO=A and IALGO=5X tend to fail with the tetrahedron method           |
|      (e.g. Bloechls method ISMEAR=-5 is not variational)                    |
|      please switch to IMSEAR=0-n, except for DOS calculations               |
|      For DOS calculations use IALGO=53 after preconverging with ISMEAR>=0   |
|          I HOPE YOU KNOW, WHAT YOU ARE  DOING                               |
|                                                                             |
 ----------------------------------------------------------------------------- 

       N       E                     dE             d eps       ncg     rms          ort
 gam= 0.000 g(H,U,f)=  0.114E-01 0.743E-03 0.000E+00 ort(H,U,f) = 0.000E+00 0.000E+00 0.000E+00
SDA:   1    -0.240968034178E+04    0.55035E-02    0.00000E+00   480   0.121E-01 0.000E+00
 gam= 0.000 trial= 0.735  step= 0.799 mean= 0.735
 gam= 0.276 g(H,U,f)=  0.260E-02 0.750E-03 0.000E+00 ort(H,U,f) = 0.456E-03-0.460E-03 0.000E+00
CGA:   2    -0.240968517939E+04   -0.48376E-02   -0.48376E-02   480   0.335E-02-0.326E-05
 gam= 0.276 trial= 0.738  step= 0.509 mean= 0.738
 gam= 0.168 g(H,U,f)=  0.469E-03 0.935E-04 0.000E+00 ort(H,U,f) = 0.144E-03-0.136E-03 0.000E+00
CGA:   3    -0.240968602783E+04   -0.84844E-03   -0.85153E-03   480   0.563E-03 0.847E-05
 gam= 0.168 trial= 0.727  step= 0.616 mean= 0.727
 gam= 0.187 g(H,U,f)=  0.949E-04 0.102E-04 0.000E+00 ort(H,U,f) = 0.978E-05-0.957E-05 0.000E+00
CGA:   4    -0.240968620145E+04   -0.17363E-03   -0.17365E-03   480   0.105E-03 0.210E-06
 gam= 0.187 trial= 0.721  step= 0.820 mean= 0.721
 gam= 0.275 g(H,U,f)=  0.258E-04 0.308E-05 0.000E+00 ort(H,U,f) = 0.296E-05-0.293E-05 0.000E+00
CGA:   5    -0.240968624453E+04   -0.43076E-04   -0.43073E-04   480   0.289E-04 0.311E-07
 gam= 0.275 trial= 0.726  step= 0.789 mean= 0.726
 gam= 0.471 g(H,U,f)=  0.106E-04 0.299E-05 0.000E+00 ort(H,U,f) = 0.171E-05-0.175E-05 0.000E+00
CGA:   6    -0.240968625592E+04   -0.11388E-04   -0.11389E-04   480   0.136E-04-0.410E-07
 gam= 0.471 trial= 0.729  step= 0.664 mean= 0.729
 gam= 0.309 g(H,U,f)=  0.367E-05 0.521E-06 0.000E+00 ort(H,U,f) = 0.615E-06-0.542E-06 0.000E+00
CGA:   7    -0.240968626042E+04   -0.45019E-05   -0.45042E-05   480   0.419E-05 0.725E-07
 gam= 0.309 trial= 0.726  step= 0.851 mean= 0.726
   9 F= -.24096863E+04 E0= -.24096863E+04  d E =-.406683E-03  mag=     2.0000
 BRION: g(F)=  0.614E-03 g(S)=  0.000E+00 retain N=  3 mean eig= 2.62
 eig:   7.622  0.190  0.054
 bond charge predicted
 writing wavefunctions

 ----------------------------------------------------------------------------- 
|                                                                             |
|           W    W    AA    RRRRR   N    N  II  N    N   GGGG   !!!           |
|           W    W   A  A   R    R  NN   N  II  NN   N  G    G  !!!           |
|           W    W  A    A  R    R  N N  N  II  N N  N  G       !!!           |
|           W WW W  AAAAAA  RRRRR   N  N N  II  N  N N  G  GGG   !            |
|           WW  WW  A    A  R   R   N   NN  II  N   NN  G    G                |
|           W    W  A    A  R    R  N    N  II  N    N   GGGG   !!!           |
|                                                                             |
|      ALGO=A and IALGO=5X tend to fail with the tetrahedron method           |
|      (e.g. Bloechls method ISMEAR=-5 is not variational)                    |
|      please switch to IMSEAR=0-n, except for DOS calculations               |
|      For DOS calculations use IALGO=53 after preconverging with ISMEAR>=0   |
|          I HOPE YOU KNOW, WHAT YOU ARE  DOING                               |
|                                                                             |
 ----------------------------------------------------------------------------- 

       N       E                     dE             d eps       ncg     rms          ort
 gam= 0.000 g(H,U,f)=  0.140E-01 0.933E-03 0.000E+00 ort(H,U,f) = 0.000E+00 0.000E+00 0.000E+00
SDA:   1    -0.240967890651E+04    0.73494E-02    0.00000E+00   480   0.149E-01 0.000E+00
 gam= 0.000 trial= 0.732  step= 0.831 mean= 0.732
 gam= 0.312 g(H,U,f)=  0.356E-02 0.108E-02 0.000E+00 ort(H,U,f) = 0.589E-03-0.604E-03 0.000E+00
CGA:   2    -0.240968510443E+04   -0.61979E-02   -0.61989E-02   480   0.465E-02-0.155E-04
 gam= 0.312 trial= 0.737  step= 0.484 mean= 0.737
 gam= 0.132 g(H,U,f)=  0.530E-03 0.821E-04 0.000E+00 ort(H,U,f) = 0.169E-03-0.143E-03 0.000E+00
CGA:   3    -0.240968621849E+04   -0.11141E-02   -0.11227E-02   480   0.612E-03 0.259E-04
 gam= 0.132 trial= 0.725  step= 0.713 mean= 0.725
 gam= 0.229 g(H,U,f)=  0.127E-03 0.134E-04 0.000E+00 ort(H,U,f) = 0.121E-04-0.123E-04 0.000E+00
CGA:   4    -0.240968643778E+04   -0.21928E-03   -0.21928E-03   480   0.140E-03-0.229E-06
 gam= 0.229 trial= 0.724  step= 0.793 mean= 0.724
 gam= 0.263 g(H,U,f)=  0.339E-04 0.291E-05 0.000E+00 ort(H,U,f) = 0.336E-05-0.366E-05 0.000E+00
CGA:   5    -0.240968649333E+04   -0.55552E-04   -0.55559E-04   480   0.368E-04-0.294E-06
 gam= 0.263 trial= 0.728  step= 0.926 mean= 0.728
 gam= 0.340 g(H,U,f)=  0.111E-04 0.146E-05 0.000E+00 ort(H,U,f) = 0.816E-06-0.722E-06 0.000E+00
CGA:   6    -0.240968651035E+04   -0.17018E-04   -0.17010E-04   480   0.125E-04 0.938E-07
 gam= 0.340 trial= 0.737  step= 0.810 mean= 0.737
 gam= 0.310 g(H,U,f)=  0.343E-05 0.455E-06 0.000E+00 ort(H,U,f) = 0.861E-07-0.167E-06 0.000E+00
CGA:   7    -0.240968651543E+04   -0.50869E-05   -0.50898E-05   480   0.389E-05-0.812E-07
 gam= 0.310 trial= 0.741  step= 0.788 mean= 0.741
  10 F= -.24096865E+04 E0= -.24096865E+04  d E =-.255014E-03  mag=     2.0000
 BRION: g(F)=  0.618E-03 g(S)=  0.000E+00 retain N=  3 mean eig= 1.20
 eig:   2.767  0.414  0.412
 bond charge predicted
 writing wavefunctions

 ----------------------------------------------------------------------------- 
|                                                                             |
|           W    W    AA    RRRRR   N    N  II  N    N   GGGG   !!!           |
|           W    W   A  A   R    R  NN   N  II  NN   N  G    G  !!!           |
|           W    W  A    A  R    R  N N  N  II  N N  N  G       !!!           |
|           W WW W  AAAAAA  RRRRR   N  N N  II  N  N N  G  GGG   !            |
|           WW  WW  A    A  R   R   N   NN  II  N   NN  G    G                |
|           W    W  A    A  R    R  N    N  II  N    N   GGGG   !!!           |
|                                                                             |
|      ALGO=A and IALGO=5X tend to fail with the tetrahedron method           |
|      (e.g. Bloechls method ISMEAR=-5 is not variational)                    |
|      please switch to IMSEAR=0-n, except for DOS calculations               |
|      For DOS calculations use IALGO=53 after preconverging with ISMEAR>=0   |
|          I HOPE YOU KNOW, WHAT YOU ARE  DOING                               |
|                                                                             |
 ----------------------------------------------------------------------------- 

       N       E                     dE             d eps       ncg     rms          ort
 gam= 0.000 g(H,U,f)=  0.403E-02 0.228E-03 0.000E+00 ort(H,U,f) = 0.000E+00 0.000E+00 0.000E+00
SDA:   1    -0.240968451126E+04    0.19991E-02    0.00000E+00   480   0.426E-02 0.000E+00
 gam= 0.000 trial= 0.743  step= 0.800 mean= 0.743
 gam= 0.233 g(H,U,f)=  0.798E-03 0.196E-03 0.000E+00 ort(H,U,f) = 0.153E-03-0.151E-03 0.000E+00
CGA:   2    -0.240968621356E+04   -0.17023E-02   -0.17022E-02   480   0.994E-03 0.121E-05
 gam= 0.233 trial= 0.746  step= 0.540 mean= 0.746
 gam= 0.167 g(H,U,f)=  0.134E-03 0.328E-04 0.000E+00 ort(H,U,f) = 0.448E-04-0.438E-04 0.000E+00
CGA:   3    -0.240968648195E+04   -0.26839E-03   -0.26857E-03   480   0.166E-03 0.980E-06
 gam= 0.167 trial= 0.736  step= 0.572 mean= 0.736
 gam= 0.200 g(H,U,f)=  0.282E-04 0.506E-05 0.000E+00 ort(H,U,f) = 0.565E-05-0.552E-05 0.000E+00
CGA:   4    -0.240968652953E+04   -0.47583E-04   -0.47601E-04   480   0.333E-04 0.126E-06
 gam= 0.200 trial= 0.728  step= 0.685 mean= 0.728
 gam= 0.251 g(H,U,f)=  0.746E-05 0.901E-06 0.000E+00 ort(H,U,f) = 0.112E-05-0.109E-05 0.000E+00
CGA:   5    -0.240968654093E+04   -0.11399E-04   -0.11400E-04   480   0.836E-05 0.324E-07
 gam= 0.251 trial= 0.726  step= 0.846 mean= 0.726
 gam= 0.371 g(H,U,f)=  0.270E-05 0.411E-06 0.000E+00 ort(H,U,f) = 0.351E-06-0.316E-06 0.000E+00
CGA:   6    -0.240968654448E+04   -0.35434E-05   -0.35413E-05   480   0.311E-05 0.351E-07
 gam= 0.371 trial= 0.732  step= 0.850 mean= 0.732
  11 F= -.24096865E+04 E0= -.24096865E+04  d E =-.290420E-04  mag=     2.0000
 BRION: g(F)=  0.603E-03 g(S)=  0.000E+00 retain N=  4 mean eig= 1.99
 eig:   6.478  0.881  0.306  0.306
 bond charge predicted
 writing wavefunctions

 ----------------------------------------------------------------------------- 
|                                                                             |
|           W    W    AA    RRRRR   N    N  II  N    N   GGGG   !!!           |
|           W    W   A  A   R    R  NN   N  II  NN   N  G    G  !!!           |
|           W    W  A    A  R    R  N N  N  II  N N  N  G       !!!           |
|           W WW W  AAAAAA  RRRRR   N  N N  II  N  N N  G  GGG   !            |
|           WW  WW  A    A  R   R   N   NN  II  N   NN  G    G                |
|           W    W  A    A  R    R  N    N  II  N    N   GGGG   !!!           |
|                                                                             |
|      ALGO=A and IALGO=5X tend to fail with the tetrahedron method           |
|      (e.g. Bloechls method ISMEAR=-5 is not variational)                    |
|      please switch to IMSEAR=0-n, except for DOS calculations               |
|      For DOS calculations use IALGO=53 after preconverging with ISMEAR>=0   |
|          I HOPE YOU KNOW, WHAT YOU ARE  DOING                               |
|                                                                             |
 ----------------------------------------------------------------------------- 

       N       E                     dE             d eps       ncg     rms          ort
 gam= 0.000 g(H,U,f)=  0.597E-02 0.427E-03 0.000E+00 ort(H,U,f) = 0.000E+00 0.000E+00 0.000E+00
SDA:   1    -0.240968343748E+04    0.31035E-02    0.00000E+00   480   0.640E-02 0.000E+00
 gam= 0.000 trial= 0.738  step= 0.799 mean= 0.738
 gam= 0.378 g(H,U,f)=  0.179E-02 0.629E-03 0.000E+00 ort(H,U,f) = 0.339E-03-0.342E-03 0.000E+00
CGA:   2    -0.240968599303E+04   -0.25556E-02   -0.25557E-02   480   0.242E-02-0.334E-05
 gam= 0.378 trial= 0.741  step= 0.469 mean= 0.741
 gam= 0.097 g(H,U,f)=  0.214E-03 0.217E-04 0.000E+00 ort(H,U,f) = 0.591E-04-0.514E-04 0.000E+00
CGA:   3    -0.240968655559E+04   -0.56256E-03   -0.56649E-03   480   0.236E-03 0.763E-05
 gam= 0.097 trial= 0.727  step= 0.847 mean= 0.727
 gam= 0.213 g(H,U,f)=  0.458E-04 0.438E-05 0.000E+00 ort(H,U,f) = 0.254E-05-0.280E-05 0.000E+00
CGA:   4    -0.240968665563E+04   -0.10004E-03   -0.10006E-03   480   0.502E-04-0.253E-06
 gam= 0.213 trial= 0.733  step= 0.786 mean= 0.733
 gam= 0.340 g(H,U,f)=  0.150E-04 0.206E-05 0.000E+00 ort(H,U,f) = 0.204E-05-0.205E-05 0.000E+00
CGA:   5    -0.240968667535E+04   -0.19724E-04   -0.19724E-04   480   0.171E-04-0.136E-07
 gam= 0.340 trial= 0.736  step= 0.788 mean= 0.736
 gam= 0.344 g(H,U,f)=  0.508E-05 0.795E-06 0.000E+00 ort(H,U,f) = 0.565E-06-0.557E-06 0.000E+00
CGA:   6    -0.240968668208E+04   -0.67256E-05   -0.67254E-05   480   0.587E-05 0.739E-08
 gam= 0.344 trial= 0.738  step= 0.796 mean= 0.738
  12 F= -.24096867E+04 E0= -.24096867E+04  d E =-.137604E-03  mag=     2.0000
 BRION: g(F)=  0.558E-04 g(S)=  0.000E+00 retain N=  4 mean eig= 2.45
 eig:   7.054  1.740  0.498  0.498
 reached required accuracy - stopping structural energy minimisation
 writing wavefunctions
