 vasp.6.4.3 19Mar24 (build Jun 20 2024 15:24:57) gamma-only                      
 executed on    LinuxNV_CrayMPICH date 2025.04.26  08:34:13
 running   16 mpi-ranks, with    1 threads/rank, on    4 nodes
 distrk:  each k-point on   16 cores,    1 groups
 distr:  one band on NCORE=   1 cores,   16 groups
 OpenACC runtime initialized ...   16 GPUs detected


--------------------------------------------------------------------------------------------------------


 INCAR:
   ALGO = A
   ISTART = 1
   EDIFF = 1e-5
   EDIFFG = -0.01
   ENCUT = 400
   IBRION = 2
   ICHARG = 2
   ISIF = 2
   ISMEAR = 0
   ISPIN = 2
   LORBIT = 11
   LREAL = Auto
   LWAVE = True
   MAGMOM = 215*0.6
   NUPDOWN = 2
   NELM = 100
   NSW = 99
   PREC = Accurate
   PRECFOCK = Fast
   HFSCREEN = 0.2
   LHFCALC = True
   SIGMA = 0.05
   NBANDS = 450

 POTCAR:   PAW_PBE Si 05Jan2001                   
 POTCAR:   PAW_PBE C 08Apr2002                    
 POTCAR:   PAW_PBE Si 05Jan2001                   
   VRHFIN =Si: s2p2                                                                                 
   LEXCH  = PE                                                                                      
   EATOM  =   103.0669 eV,    7.5752 Ry                                                             
                                                                                                    
   TITEL  = PAW_PBE Si 05Jan2001                                                                    
   LULTRA =        F    use ultrasoft PP ?                                                          
   IUNSCR =        1    unscreen: 0-lin 1-nonlin 2-no                                               
   RPACOR =    1.500    partial core radius                                                         
   POMASS =   28.085; ZVAL   =    4.000    mass and valenz                                          
   RCORE  =    1.900    outmost cutoff radius                                                       
   RWIGS  =    2.480; RWIGS  =    1.312    wigner-seitz radius (au A)                               
   ENMAX  =  245.345; ENMIN  =  184.009 eV                                                          
   ICORE  =        2    local potential                                                             
   LCOR   =        T    correct aug charges                                                         
   LPAW   =        T    paw PP                                                                      
   EAUG   =  322.069                                                                                
   DEXC   =    -.007                                                                                
   RMAX   =    2.944    core radius for proj-oper                                                   
   RAUG   =    1.300    factor for augmentation sphere                                              
   RDEP   =    1.993    radius for radial grids                                                     
   QCUT   =   -4.246; QGAM   =    8.493    optimization parameters                                  
                                                                                                    
   Description                                                                                      
     l     E      TYP  RCUT    TYP  RCUT                                                            
     0   .000     23  1.900                                                                         
     0   .000     23  1.900                                                                         
     1   .000     23  1.900                                                                         
     1   .000     23  1.900                                                                         
     2   .000      7  1.900                                                                         
  local pseudopotential read in
  partial core-charges read in
  atomic valenz-charges read in
  non local Contribution for L=            0  read in
    real space projection operators read in
  non local Contribution for L=            0  read in
    real space projection operators read in
  non local Contribution for L=            1  read in
    real space projection operators read in
  non local Contribution for L=            1  read in
    real space projection operators read in
    PAW grid and wavefunctions read in
 
   number of l-projection  operators is LMAX  =            4
   number of lm-projection operators is LMMAX =            8
 
 POTCAR:   PAW_PBE C 08Apr2002                    
   VRHFIN =C: s2p2                                                                                  
   LEXCH  = PE                                                                                      
   EATOM  =   147.1560 eV,   10.8157 Ry                                                             
                                                                                                    
   TITEL  = PAW_PBE C 08Apr2002                                                                     
   LULTRA =        F    use ultrasoft PP ?                                                          
   IUNSCR =        0    unscreen: 0-lin 1-nonlin 2-no                                               
   RPACOR =     .000    partial core radius                                                         
   POMASS =   12.011; ZVAL   =    4.000    mass and valenz                                          
   RCORE  =    1.500    outmost cutoff radius                                                       
   RWIGS  =    1.630; RWIGS  =     .863    wigner-seitz radius (au A)                               
   ENMAX  =  400.000; ENMIN  =  300.000 eV                                                          
   ICORE  =        2    local potential                                                             
   LCOR   =        T    correct aug charges                                                         
   LPAW   =        T    paw PP                                                                      
   EAUG   =  644.873                                                                                
   DEXC   =     .000                                                                                
   RMAX   =    2.266    core radius for proj-oper                                                   
   RAUG   =    1.300    factor for augmentation sphere                                              
   RDEP   =    1.501    radius for radial grids                                                     
   RDEPT  =    1.300    core radius for aug-charge                                                  
   QCUT   =   -5.516; QGAM   =   11.032    optimization parameters                                  
                                                                                                    
   Description                                                                                      
     l     E      TYP  RCUT    TYP  RCUT                                                            
     0   .000     23  1.200                                                                         
     0   .000     23  1.200                                                                         
     1   .000     23  1.500                                                                         
     1  2.500     23  1.500                                                                         
     2   .000      7  1.500                                                                         
  local pseudopotential read in
  atomic valenz-charges read in
  non local Contribution for L=            0  read in
    real space projection operators read in
  non local Contribution for L=            0  read in
    real space projection operators read in
  non local Contribution for L=            1  read in
    real space projection operators read in
  non local Contribution for L=            1  read in
    real space projection operators read in
    PAW grid and wavefunctions read in
 
   number of l-projection  operators is LMAX  =            4
   number of lm-projection operators is LMMAX =            8
 
 Optimization of the real space projectors (new method)

 maximal supplied QI-value         = 19.84
 optimisation between [QCUT,QGAM] = [ 10.12, 20.44] = [ 28.68,116.96] Ry 
 Optimized for a Real-space Cutoff    1.38 Angstroem

   l    n(q)    QCUT    max X(q) W(low)/X(q) W(high)/X(q)  e(spline) 
   0      8    10.119     8.708    0.16E-04    0.67E-05    0.60E-08
   0      8    10.119   106.241    0.56E-04    0.11E-03    0.54E-07
   1      8    10.119     5.901    0.16E-04    0.16E-05    0.22E-07
   1      8    10.119    73.241    0.22E-03    0.17E-03    0.18E-06
 Optimization of the real space projectors (new method)

 maximal supplied QI-value         = 25.13
 optimisation between [QCUT,QGAM] = [ 10.05, 20.36] = [ 28.30,116.06] Ry 
 Optimized for a Real-space Cutoff    1.38 Angstroem

   l    n(q)    QCUT    max X(q) W(low)/X(q) W(high)/X(q)  e(spline) 
   0      8    10.053     5.582    0.33E-04    0.15E-04    0.75E-07
   0      8    10.053    69.432    0.23E-03    0.38E-03    0.25E-06
   1      8    10.053     2.780    0.76E-04    0.11E-03    0.15E-06
   1      8    10.053     4.549    0.19E-03    0.19E-03    0.27E-06
 PAW_PBE Si 05Jan2001                   :
 energy of atom  1       EATOM= -103.0669
 kinetic energy error for atom=    0.0012 (will be added to EATOM!!)
 PAW_PBE C 08Apr2002                    :
 energy of atom  2       EATOM= -147.1560
 kinetic energy error for atom=    0.0288 (will be added to EATOM!!)
 
 
 POSCAR: Si1 C214
  positions in direct lattice
  velocities in cartesian coordinates


 exchange-correlation table for PE
   RHO(1)=    0.500       N(1)  =     2000
   RHO(2)=  100.500       N(2)  =     4000
 


--------------------------------------------------------------------------------------------------------


 ion  position               nearest neighbor table
   1  0.500  0.500  0.500-  16 2.02  71 2.02 108 2.02 131 2.02 162 2.02 215 2.02
   2  0.041  0.041  0.875-  91 1.54 139 1.54  41 1.54 189 1.54
   3  0.042  0.042  0.208-  92 1.53 140 1.53  42 1.54 190 1.54
   4  0.042  0.042  0.542-  93 1.53 141 1.53 191 1.54  43 1.54
   5  0.041  0.375  0.876-  44 1.53 142 1.53 192 1.54  94 1.54
   6  0.043  0.375  0.209- 143 1.53  45 1.54  95 1.54 193 1.54
   7  0.042  0.375  0.542- 144 1.54 194 1.54  96 1.54  46 1.54
   8  0.041  0.708  0.875- 136 1.53  38 1.54  97 1.54 195 1.54
   9  0.042  0.709  0.208-  98 1.53  39 1.54 137 1.54 196 1.54
  10  0.041  0.708  0.542- 138 1.53 197 1.54  99 1.54  40 1.54
  11  0.375  0.041  0.876-  50 1.53 100 1.53 198 1.54 148 1.54
  12  0.375  0.043  0.209- 101 1.53  51 1.54 149 1.54 199 1.54
  13  0.375  0.042  0.542- 102 1.54 200 1.54 150 1.54  52 1.54
  14  0.375  0.375  0.875-  53 1.54 201 1.54 151 1.54 103 1.54
  15  0.377  0.377  0.210-  54 1.53 104 1.54 152 1.54 202 1.55
  16  0.371  0.371  0.552- 105 1.50 153 1.50 203 1.51   1 2.02
  17  0.374  0.708  0.875- 145 1.53 204 1.54 106 1.54  47 1.54
  18  0.375  0.711  0.206- 107 1.52  48 1.53 205 1.54 146 1.54
  19  0.372  0.710  0.543- 108 1.50 147 1.52 206 1.54  49 1.55
  20  0.708  0.041  0.875-  82 1.53  32 1.54 157 1.54 207 1.54
  21  0.709  0.042  0.208- 158 1.53  33 1.54  83 1.54 208 1.54
  22  0.708  0.041  0.542-  84 1.53 209 1.54 159 1.54  34 1.54
  23  0.708  0.374  0.875-  85 1.53 210 1.54 160 1.54  35 1.54
  24  0.711  0.375  0.206- 161 1.52  36 1.53 211 1.54  86 1.54
  25  0.710  0.372  0.543- 162 1.50  87 1.52 212 1.54  37 1.55
  26  0.707  0.707  0.873-  29 1.53  88 1.54 154 1.54 213 1.55
  27  0.709  0.709  0.207-  30 1.53 214 1.54 155 1.54  89 1.54
  28  0.706  0.706  0.539- 215 1.51 156 1.54  90 1.54  31 1.55
  29  0.791  0.791  0.791-  26 1.53  75 1.53 117 1.53 163 1.54
  30  0.792  0.792  0.124-  27 1.53  73 1.54 115 1.54 164 1.54
  31  0.792  0.792  0.458- 165 1.53 116 1.54  74 1.54  28 1.55
  32  0.792  0.124  0.792-  78 1.53  20 1.54 111 1.54 166 1.54
  33  0.792  0.125  0.125-  21 1.54  76 1.54 109 1.54 167 1.54
  34  0.793  0.124  0.458-  77 1.53 110 1.53 168 1.54  22 1.54
  35  0.792  0.458  0.792- 169 1.53 114 1.54  23 1.54  81 1.55
  36  0.793  0.458  0.124-  24 1.53 112 1.53 170 1.54  79 1.54
  37  0.792  0.458  0.458- 171 1.53 113 1.54  25 1.55  80 1.55
  38  0.124  0.792  0.792- 126 1.53  57 1.54   8 1.54 172 1.54
  39  0.125  0.792  0.125-   9 1.54 124 1.54  55 1.54 173 1.54
  40  0.124  0.793  0.458- 125 1.53  56 1.53 174 1.54  10 1.54
  41  0.125  0.125  0.792-  60 1.54 120 1.54   2 1.54 175 1.54
  42  0.126  0.126  0.126-   3 1.54  58 1.54 118 1.54 176 1.54
  43  0.125  0.125  0.459- 177 1.53 119 1.54  59 1.54   4 1.54
  44  0.124  0.458  0.793- 123 1.53   5 1.53 178 1.54  63 1.54
  45  0.125  0.459  0.125- 179 1.53 121 1.54   6 1.54  61 1.54
  46  0.126  0.459  0.459- 180 1.53 122 1.53   7 1.54  62 1.54
  47  0.458  0.792  0.792- 181 1.53  66 1.54  17 1.54 135 1.55
  48  0.458  0.793  0.124-  18 1.53  64 1.53 182 1.54 133 1.54
  49  0.458  0.792  0.458- 183 1.53  65 1.54 134 1.55  19 1.55
  50  0.458  0.124  0.793-  69 1.53  11 1.53 184 1.54 129 1.54
  51  0.459  0.125  0.125- 185 1.53  67 1.54  12 1.54 127 1.54
  52  0.459  0.126  0.459- 186 1.53  68 1.53  13 1.54 128 1.54
  53  0.458  0.458  0.792- 187 1.53  14 1.54 132 1.55  72 1.55
  54  0.459  0.459  0.126- 188 1.53  15 1.53 130 1.54  70 1.54
  55  0.041  0.875  0.041-  91 1.54 190 1.54  39 1.54 136 1.54
  56  0.041  0.876  0.375-  40 1.53 191 1.53 137 1.54  92 1.54
  57  0.041  0.875  0.708- 189 1.53  38 1.54  93 1.54 138 1.54
  58  0.042  0.208  0.042-  94 1.53 193 1.53  42 1.54 139 1.54
  59  0.043  0.209  0.375- 194 1.53  43 1.54  95 1.54 140 1.54
  60  0.042  0.208  0.709-  96 1.53  41 1.54 192 1.54 141 1.54
  61  0.042  0.542  0.042-  97 1.53 196 1.53 142 1.54  45 1.54
  62  0.042  0.542  0.375- 197 1.54 143 1.54  98 1.54  46 1.54
  63  0.041  0.542  0.708- 195 1.53 144 1.54  99 1.54  44 1.54
  64  0.375  0.876  0.041-  48 1.53 100 1.53 145 1.54 199 1.54
  65  0.375  0.875  0.375-  49 1.54 146 1.54 101 1.54 200 1.54
  66  0.374  0.875  0.708- 198 1.53 147 1.54 102 1.54  47 1.54
  67  0.375  0.209  0.043- 103 1.53  51 1.54 202 1.54 148 1.54
  68  0.377  0.210  0.377-  52 1.53 104 1.54 203 1.54 149 1.55
  69  0.375  0.206  0.711- 105 1.52  50 1.53 150 1.54 201 1.54
  70  0.375  0.542  0.042- 106 1.54 151 1.54 205 1.54  54 1.54
  71  0.371  0.552  0.371- 107 1.50 206 1.50 152 1.51   1 2.02
  72  0.372  0.543  0.710- 108 1.50 204 1.52 153 1.54  53 1.55
  73  0.708  0.875  0.041-  82 1.53  30 1.54 208 1.54 154 1.54
  74  0.708  0.875  0.374-  83 1.53 155 1.54 209 1.54  31 1.54
  75  0.707  0.873  0.707-  29 1.53  84 1.54 207 1.54 156 1.55
  76  0.709  0.208  0.042- 211 1.53  33 1.54  85 1.54 157 1.54
  77  0.711  0.206  0.375- 212 1.52  34 1.53 158 1.54  86 1.54
  78  0.709  0.207  0.709-  32 1.53 159 1.54  87 1.54 210 1.54
  79  0.708  0.542  0.041-  88 1.53 160 1.54 214 1.54  36 1.54
  80  0.710  0.543  0.372- 215 1.50  89 1.52 161 1.54  37 1.55
  81  0.706  0.539  0.706- 162 1.51  90 1.54 213 1.54  35 1.55
  82  0.792  0.958  0.958-  20 1.53  73 1.53 163 1.54 109 1.54
  83  0.792  0.958  0.291-  74 1.53 164 1.54  21 1.54 110 1.54
  84  0.791  0.957  0.625-  22 1.53 165 1.54  75 1.54 111 1.54
  85  0.792  0.291  0.958-  23 1.53 166 1.54  76 1.54 112 1.54
  86  0.793  0.291  0.291- 167 1.53 113 1.54  24 1.54  77 1.54
  87  0.794  0.289  0.625-  25 1.52 168 1.53 114 1.54  78 1.54
  88  0.791  0.625  0.957-  79 1.53 169 1.54  26 1.54 115 1.54
  89  0.794  0.625  0.289-  80 1.52 170 1.53 116 1.54  27 1.54
  90  0.790  0.623  0.623- 171 1.53  81 1.54  28 1.54 117 1.55
  91  0.125  0.959  0.959-   2 1.54  55 1.54 172 1.54 118 1.54
  92  0.125  0.959  0.292-   3 1.53 173 1.54  56 1.54 119 1.54
  93  0.124  0.959  0.625- 174 1.53   4 1.53 120 1.54  57 1.54
  94  0.125  0.292  0.959-  58 1.53 175 1.54   5 1.54 121 1.54
  95  0.127  0.293  0.293- 176 1.53  59 1.54   6 1.54 122 1.55
  96  0.125  0.292  0.626-  60 1.53 123 1.54   7 1.54 177 1.54
  97  0.124  0.625  0.959- 178 1.53  61 1.53 124 1.54   8 1.54
  98  0.125  0.626  0.292-   9 1.53 125 1.54  62 1.54 179 1.54
  99  0.125  0.625  0.625- 180 1.54 126 1.54  10 1.54  63 1.54
 100  0.458  0.958  0.958-  11 1.53  64 1.53 127 1.54 181 1.54
 101  0.458  0.959  0.292-  12 1.53 128 1.54  65 1.54 182 1.54
 102  0.458  0.958  0.625-  13 1.54 129 1.54  66 1.54 183 1.54
 103  0.458  0.292  0.959-  67 1.53 130 1.54  14 1.54 184 1.54
 104  0.461  0.294  0.294- 131 1.51  68 1.54  15 1.54 185 1.55
 105  0.457  0.290  0.628-  16 1.50  69 1.52 132 1.54 186 1.55
 106  0.458  0.625  0.958-  70 1.54 133 1.54  17 1.54 187 1.54
 107  0.457  0.628  0.290-  71 1.50  18 1.52 134 1.54 188 1.55
 108  0.448  0.629  0.629-  19 1.50  72 1.50 135 1.51   1 2.02
 109  0.875  0.041  0.041- 139 1.54 190 1.54  33 1.54  82 1.54
 110  0.876  0.041  0.375-  34 1.53 191 1.53  83 1.54 140 1.54
 111  0.875  0.041  0.708- 189 1.53  32 1.54 141 1.54  84 1.54
 112  0.876  0.375  0.041-  36 1.53 142 1.53  85 1.54 193 1.54
 113  0.875  0.375  0.375-  37 1.54  86 1.54 143 1.54 194 1.54
 114  0.875  0.374  0.708- 192 1.53  87 1.54 144 1.54  35 1.54
 115  0.875  0.708  0.041- 136 1.53  30 1.54 196 1.54  88 1.54
 116  0.875  0.708  0.374- 137 1.53  89 1.54 197 1.54  31 1.54
 117  0.873  0.707  0.707-  29 1.53 138 1.54 195 1.54  90 1.55
 118  0.208  0.042  0.042- 148 1.53 199 1.53  42 1.54  91 1.54
 119  0.209  0.043  0.375- 200 1.53  43 1.54 149 1.54  92 1.54
 120  0.208  0.042  0.709- 150 1.53  41 1.54 198 1.54  93 1.54
 121  0.209  0.375  0.043- 151 1.53  45 1.54 202 1.54  94 1.54
 122  0.210  0.377  0.377-  46 1.53 152 1.54 203 1.54  95 1.55
 123  0.206  0.375  0.711- 153 1.52  44 1.53  96 1.54 201 1.54
 124  0.208  0.709  0.042- 205 1.53  39 1.54 145 1.54  97 1.54
 125  0.206  0.711  0.375- 206 1.52  40 1.53  98 1.54 146 1.54
 126  0.207  0.709  0.709-  38 1.53  99 1.54 147 1.54 204 1.54
 127  0.542  0.042  0.042- 157 1.53 208 1.53 100 1.54  51 1.54
 128  0.542  0.042  0.375- 209 1.54 101 1.54 158 1.54  52 1.54
 129  0.542  0.041  0.708- 207 1.53 102 1.54 159 1.54  50 1.54
 130  0.542  0.375  0.042- 160 1.54 103 1.54 211 1.54  54 1.54
 131  0.552  0.371  0.371- 161 1.50 212 1.50 104 1.51   1 2.02
 132  0.543  0.372  0.710- 162 1.50 210 1.52 105 1.54  53 1.55
 133  0.542  0.708  0.041- 154 1.53 106 1.54 214 1.54  48 1.54
 134  0.543  0.710  0.372- 215 1.50 155 1.52 107 1.54  49 1.55
 135  0.539  0.706  0.706- 108 1.51 156 1.54 213 1.54  47 1.55
 136  0.958  0.792  0.958-   8 1.53 115 1.53 163 1.54  55 1.54
 137  0.958  0.792  0.291- 116 1.53 164 1.54   9 1.54  56 1.54
 138  0.957  0.791  0.625-  10 1.53 165 1.54 117 1.54  57 1.54
 139  0.959  0.125  0.959-   2 1.54 109 1.54 166 1.54  58 1.54
 140  0.959  0.125  0.292-   3 1.53 167 1.54 110 1.54  59 1.54
 141  0.959  0.124  0.625- 168 1.53   4 1.53  60 1.54 111 1.54
 142  0.958  0.458  0.958-   5 1.53 112 1.53  61 1.54 169 1.54
 143  0.959  0.458  0.292-   6 1.53  62 1.54 113 1.54 170 1.54
 144  0.958  0.458  0.625-   7 1.54  63 1.54 114 1.54 171 1.54
 145  0.291  0.792  0.958-  17 1.53 172 1.54 124 1.54  64 1.54
 146  0.291  0.793  0.291- 173 1.53  65 1.54 125 1.54  18 1.54
 147  0.289  0.794  0.625-  19 1.52 174 1.53  66 1.54 126 1.54
 148  0.292  0.125  0.959- 118 1.53 175 1.54  11 1.54  67 1.54
 149  0.293  0.127  0.293- 176 1.53 119 1.54  12 1.54  68 1.55
 150  0.292  0.125  0.626- 120 1.53  69 1.54  13 1.54 177 1.54
 151  0.292  0.458  0.959- 121 1.53  70 1.54  14 1.54 178 1.54
 152  0.294  0.461  0.294-  71 1.51  15 1.54 122 1.54 179 1.55
 153  0.290  0.457  0.628-  16 1.50 123 1.52  72 1.54 180 1.55
 154  0.625  0.791  0.957- 133 1.53 181 1.54  26 1.54  73 1.54
 155  0.625  0.794  0.289- 134 1.52 182 1.53  74 1.54  27 1.54
 156  0.623  0.790  0.623- 183 1.53 135 1.54  28 1.54  75 1.55
 157  0.625  0.124  0.959- 184 1.53 127 1.53  76 1.54  20 1.54
 158  0.626  0.125  0.292-  21 1.53  77 1.54 128 1.54 185 1.54
 159  0.625  0.125  0.625- 186 1.54  78 1.54 129 1.54  22 1.54
 160  0.625  0.458  0.958- 130 1.54  79 1.54  23 1.54 187 1.54
 161  0.628  0.457  0.290- 131 1.50  24 1.52  80 1.54 188 1.55
 162  0.629  0.448  0.629-  25 1.50 132 1.50  81 1.51   1 2.02
 163  0.874  0.874  0.874- 189 1.54 136 1.54  82 1.54  29 1.54
 164  0.875  0.875  0.208-  83 1.54 137 1.54 190 1.54  30 1.54
 165  0.875  0.875  0.541-  31 1.53  84 1.54 138 1.54 191 1.54
 166  0.875  0.208  0.875-  85 1.54 192 1.54 139 1.54  32 1.54
 167  0.876  0.208  0.208-  86 1.53 140 1.54 193 1.54  33 1.54
 168  0.876  0.207  0.542-  87 1.53 141 1.53  34 1.54 194 1.54
 169  0.875  0.541  0.875-  35 1.53  88 1.54 195 1.54 142 1.54
 170  0.876  0.542  0.207-  89 1.53 196 1.53  36 1.54 143 1.54
 171  0.874  0.541  0.541-  37 1.53  90 1.53 144 1.54 197 1.54
 172  0.208  0.875  0.875- 145 1.54 198 1.54  91 1.54  38 1.54
 173  0.208  0.876  0.208- 146 1.53  92 1.54 199 1.54  39 1.54
 174  0.207  0.876  0.542- 147 1.53  93 1.53  40 1.54 200 1.54
 175  0.208  0.208  0.876- 201 1.53 148 1.54  94 1.54  41 1.54
 176  0.209  0.209  0.209-  95 1.53 149 1.53 202 1.53  42 1.54
 177  0.208  0.208  0.542-  43 1.53  96 1.54 150 1.54 203 1.55
 178  0.207  0.542  0.876- 204 1.53  97 1.53  44 1.54 151 1.54
 179  0.208  0.542  0.208-  45 1.53  98 1.54 205 1.54 152 1.55
 180  0.208  0.542  0.542-  46 1.53  99 1.54 153 1.55 206 1.55
 181  0.541  0.875  0.875-  47 1.53 154 1.54 207 1.54 100 1.54
 182  0.542  0.876  0.207- 155 1.53 208 1.53  48 1.54 101 1.54
 183  0.541  0.874  0.541-  49 1.53 156 1.53 209 1.54 102 1.54
 184  0.542  0.207  0.876- 210 1.53 157 1.53  50 1.54 103 1.54
 185  0.542  0.208  0.208-  51 1.53 158 1.54 211 1.54 104 1.55
 186  0.542  0.208  0.542-  52 1.53 159 1.54 105 1.55 212 1.55
 187  0.541  0.541  0.874-  53 1.53 213 1.53 160 1.54 106 1.54
 188  0.542  0.542  0.208-  54 1.53 214 1.54 161 1.55 107 1.55
 189  0.958  0.958  0.792-  57 1.53 111 1.53 163 1.54   2 1.54
 190  0.959  0.959  0.125-  55 1.54 109 1.54 164 1.54   3 1.54
 191  0.958  0.958  0.458-  56 1.53 110 1.53   4 1.54 165 1.54
 192  0.958  0.291  0.792- 114 1.53 166 1.54  60 1.54   5 1.54
 193  0.959  0.292  0.125-  58 1.53 167 1.54 112 1.54   6 1.54
 194  0.959  0.292  0.458-  59 1.53   7 1.54 113 1.54 168 1.54
 195  0.957  0.625  0.791-  63 1.53 169 1.54 117 1.54   8 1.54
 196  0.959  0.625  0.124- 170 1.53  61 1.53   9 1.54 115 1.54
 197  0.958  0.625  0.458-  62 1.54  10 1.54 116 1.54 171 1.54
 198  0.291  0.958  0.792-  66 1.53 172 1.54 120 1.54  11 1.54
 199  0.292  0.959  0.125- 118 1.53 173 1.54  64 1.54  12 1.54
 200  0.292  0.959  0.458- 119 1.53  13 1.54  65 1.54 174 1.54
 201  0.291  0.291  0.793- 175 1.53  14 1.54 123 1.54  69 1.54
 202  0.293  0.293  0.127- 176 1.53 121 1.54  67 1.54  15 1.55
 203  0.294  0.294  0.461-  16 1.51  68 1.54 122 1.54 177 1.55
 204  0.289  0.625  0.794-  72 1.52 178 1.53  17 1.54 126 1.54
 205  0.292  0.626  0.125- 124 1.53  18 1.54  70 1.54 179 1.54
 206  0.290  0.628  0.457-  71 1.50 125 1.52  19 1.54 180 1.55
 207  0.625  0.957  0.791- 129 1.53 181 1.54  75 1.54  20 1.54
 208  0.625  0.959  0.124- 182 1.53 127 1.53  21 1.54  73 1.54
 209  0.625  0.958  0.458- 128 1.54  22 1.54  74 1.54 183 1.54
 210  0.625  0.289  0.794- 132 1.52 184 1.53  23 1.54  78 1.54
 211  0.626  0.292  0.125-  76 1.53  24 1.54 130 1.54 185 1.54
 212  0.628  0.290  0.457- 131 1.50  77 1.52  25 1.54 186 1.55
 213  0.623  0.623  0.790- 187 1.53 135 1.54  81 1.54  26 1.55
 214  0.625  0.625  0.125- 188 1.54  27 1.54 133 1.54  79 1.54
 215  0.629  0.629  0.448- 134 1.50  80 1.50  28 1.51   1 2.02
 
  LATTYP: Found a simple cubic cell.
 ALAT       =    10.6460610000
  
  Lattice vectors:
  
 A1 = (  10.6460610000,   0.0000000000,   0.0000000000)
 A2 = (   0.0000000000,  10.6460610000,   0.0000000000)
 A3 = (   0.0000000000,   0.0000000000,  10.6460610000)


Analysis of symmetry for initial positions (statically):
=====================================================================
 Subroutine PRICEL returns:
 Original cell was already a primitive cell.
 

 Routine SETGRP: Setting up the symmetry group for a 
 simple cubic supercell.


 Subroutine GETGRP returns: Found 12 space group operations
 (whereof 12 operations were pure point group operations)
 out of a pool of 48 trial point group operations.


The static configuration has the point symmetry D_3d.


Analysis of symmetry for dynamics (positions and initial velocities):
=====================================================================
 Subroutine PRICEL returns:
 Original cell was already a primitive cell.
 

 Routine SETGRP: Setting up the symmetry group for a 
 simple cubic supercell.


 Subroutine GETGRP returns: Found 12 space group operations
 (whereof 12 operations were pure point group operations)
 out of a pool of 48 trial point group operations.


The dynamic configuration has the point symmetry D_3d.


Analysis of structural, dynamic, and magnetic symmetry:
=====================================================================
 Subroutine PRICEL returns:
 Original cell was already a primitive cell.
 

 Routine SETGRP: Setting up the symmetry group for a 
 simple cubic supercell.


 Subroutine GETGRP returns: Found 12 space group operations
 (whereof 12 operations were pure point group operations)
 out of a pool of 48 trial point group operations.


The overall configuration has the point symmetry D_3d.


 Subroutine INISYM returns: Found 12 space group operations
 (whereof 12 operations are pure point group operations),
 and found     1 'primitive' translations


----------------------------------------------------------------------------------------

                                     Primitive cell                                     

  volume of cell :    1206.6098

  direct lattice vectors                    reciprocal lattice vectors
    10.646061000  0.000000000  0.000000000     0.093931455  0.000000000  0.000000000
     0.000000000 10.646061000  0.000000000     0.000000000  0.093931455  0.000000000
     0.000000000  0.000000000 10.646061000     0.000000000  0.000000000  0.093931455

  length of vectors
    10.646061000 10.646061000 10.646061000     0.093931455  0.093931455  0.093931455

  position of ions in fractional coordinates (direct lattice)
     0.500000000  0.500000000  0.500000000
     0.041486899  0.041486899  0.875120196
     0.042112479  0.042112479  0.208427813
     0.041610038  0.041610038  0.541814990
     0.041267179  0.374842393  0.875846551
     0.042612778  0.375338945  0.208812072
     0.041888942  0.375053454  0.541935711
     0.040847836  0.708234333  0.874753765
     0.041575648  0.708739826  0.207919906
     0.041016701  0.708484046  0.541522925
     0.374842393  0.041267179  0.875846551
     0.375338945  0.042612778  0.208812072
     0.375053454  0.041888942  0.541935711
     0.374925432  0.374925432  0.875496431
     0.376632339  0.376632339  0.210414882
     0.370703316  0.370703316  0.552158197
     0.374164063  0.708402194  0.875307338
     0.375186850  0.710654269  0.206251464
     0.371779497  0.710429859  0.542642725
     0.708234333  0.040847836  0.874753765
     0.708739826  0.041575648  0.207919906
     0.708484046  0.041016701  0.541522925
     0.708402194  0.374164063  0.875307338
     0.710654269  0.375186850  0.206251464
     0.710429859  0.371779497  0.542642725
     0.707268495  0.707268495  0.873448651
     0.708699386  0.708699386  0.207207223
     0.706324335  0.706324335  0.538743955
     0.790699009  0.790699009  0.790699009
     0.791709272  0.791709272  0.124097379
     0.791640429  0.791640429  0.457702919
     0.791709272  0.124097379  0.791709272
     0.792149677  0.124941795  0.124941795
     0.793137026  0.123589220  0.458158539
     0.791640429  0.457702919  0.791640429
     0.793137026  0.458158539  0.123589220
     0.791671552  0.457937511  0.457937511
     0.124097379  0.791709272  0.791709272
     0.124941795  0.792149677  0.124941795
     0.123589220  0.793137026  0.458158539
     0.124941795  0.124941795  0.792149677
     0.125587172  0.125587172  0.125587172
     0.125255263  0.125255263  0.458935439
     0.123589220  0.458158539  0.793137026
     0.125255263  0.458935439  0.125255263
     0.125573146  0.458880759  0.458880759
     0.457702919  0.791640429  0.791640429
     0.458158539  0.793137026  0.123589220
     0.457937511  0.791671552  0.457937511
     0.458158539  0.123589220  0.793137026
     0.458935439  0.125255263  0.125255263
     0.458880759  0.125573146  0.458880759
     0.457937511  0.457937511  0.791671552
     0.458880759  0.458880759  0.125573146
     0.041486899  0.875120196  0.041486899
     0.041267179  0.875846551  0.374842393
     0.040847836  0.874753765  0.708234333
     0.042112479  0.208427813  0.042112479
     0.042612778  0.208812072  0.375338945
     0.041575648  0.207919906  0.708739826
     0.041610038  0.541814990  0.041610038
     0.041888942  0.541935711  0.375053454
     0.041016701  0.541522925  0.708484046
     0.374842393  0.875846551  0.041267179
     0.374925432  0.875496431  0.374925432
     0.374164063  0.875307338  0.708402194
     0.375338945  0.208812072  0.042612778
     0.376632339  0.210414882  0.376632339
     0.375186850  0.206251464  0.710654269
     0.375053454  0.541935711  0.041888942
     0.370703316  0.552158197  0.370703316
     0.371779497  0.542642725  0.710429859
     0.708234333  0.874753765  0.040847836
     0.708402194  0.875307338  0.374164063
     0.707268495  0.873448651  0.707268495
     0.708739826  0.207919906  0.041575648
     0.710654269  0.206251464  0.375186850
     0.708699386  0.207207223  0.708699386
     0.708484046  0.541522925  0.041016701
     0.710429859  0.542642725  0.371779497
     0.706324335  0.538743955  0.706324335
     0.791572187  0.957887521  0.957887521
     0.792080094  0.958424352  0.291260174
     0.791187928  0.957387222  0.624661055
     0.792080094  0.291260174  0.958424352
     0.792792777  0.291300614  0.291300614
     0.793748536  0.289345731  0.624813150
     0.791187928  0.624661055  0.957387222
     0.793748536  0.624813150  0.289345731
     0.789585118  0.623367661  0.623367661
     0.124879804  0.958513101  0.958513101
     0.125246235  0.959152164  0.291765667
     0.124153449  0.958732821  0.625157607
     0.125246235  0.291765667  0.959152164
     0.126551349  0.292731505  0.292731505
     0.124692662  0.291597806  0.625835937
     0.124153449  0.625157607  0.958732821
     0.124692662  0.625835937  0.291597806
     0.124503569  0.625074568  0.625074568
     0.458185010  0.958389962  0.958389962
     0.458477075  0.958983299  0.291515954
     0.458064289  0.958111058  0.624946546
     0.458477075  0.291515954  0.958983299
     0.461256045  0.293675665  0.293675665
     0.457357275  0.289570141  0.628220503
     0.458064289  0.624946546  0.958111058
     0.457357275  0.628220503  0.289570141
     0.447841803  0.629296684  0.629296684
     0.875120196  0.041486899  0.041486899
     0.875846551  0.041267179  0.374842393
     0.874753765  0.040847836  0.708234333
     0.875846551  0.374842393  0.041267179
     0.875496431  0.374925432  0.374925432
     0.875307338  0.374164063  0.708402194
     0.874753765  0.708234333  0.040847836
     0.875307338  0.708402194  0.374164063
     0.873448651  0.707268495  0.707268495
     0.208427813  0.042112479  0.042112479
     0.208812072  0.042612778  0.375338945
     0.207919906  0.041575648  0.708739826
     0.208812072  0.375338945  0.042612778
     0.210414882  0.376632339  0.376632339
     0.206251464  0.375186850  0.710654269
     0.207919906  0.708739826  0.041575648
     0.206251464  0.710654269  0.375186850
     0.207207223  0.708699386  0.708699386
     0.541814990  0.041610038  0.041610038
     0.541935711  0.041888942  0.375053454
     0.541522925  0.041016701  0.708484046
     0.541935711  0.375053454  0.041888942
     0.552158197  0.370703316  0.370703316
     0.542642725  0.371779497  0.710429859
     0.541522925  0.708484046  0.041016701
     0.542642725  0.710429859  0.371779497
     0.538743955  0.706324335  0.706324335
     0.957887521  0.791572187  0.957887521
     0.958424352  0.792080094  0.291260174
     0.957387222  0.791187928  0.624661055
     0.958513101  0.124879804  0.958513101
     0.959152164  0.125246235  0.291765667
     0.958732821  0.124153449  0.625157607
     0.958389962  0.458185010  0.958389962
     0.958983299  0.458477075  0.291515954
     0.958111058  0.458064289  0.624946546
     0.291260174  0.792080094  0.958424352
     0.291300614  0.792792777  0.291300614
     0.289345731  0.793748536  0.624813150
     0.291765667  0.125246235  0.959152164
     0.292731505  0.126551349  0.292731505
     0.291597806  0.124692662  0.625835937
     0.291515954  0.458477075  0.958983299
     0.293675665  0.461256045  0.293675665
     0.289570141  0.457357275  0.628220503
     0.624661055  0.791187928  0.957387222
     0.624813150  0.793748536  0.289345731
     0.623367661  0.789585118  0.623367661
     0.625157607  0.124153449  0.958732821
     0.625835937  0.124692662  0.291597806
     0.625074568  0.124503569  0.625074568
     0.624946546  0.458064289  0.958111058
     0.628220503  0.457357275  0.289570141
     0.629296684  0.447841803  0.629296684
     0.874412828  0.874412828  0.874412828
     0.875058205  0.875058205  0.207850323
     0.874744737  0.874744737  0.541064561
     0.875058205  0.207850323  0.875058205
     0.875902621  0.208290728  0.208290728
     0.876410780  0.206862974  0.541841461
     0.874744737  0.541064561  0.874744737
     0.876410780  0.541841461  0.206862974
     0.874426854  0.541119241  0.541119241
     0.207850323  0.875058205  0.875058205
     0.208290728  0.875902621  0.208290728
     0.206862974  0.876410780  0.541841461
     0.208290728  0.208290728  0.875902621
     0.209300991  0.209300991  0.209300991
     0.208359571  0.208359571  0.542297081
     0.206862974  0.541841461  0.876410780
     0.208359571  0.542297081  0.208359571
     0.208328448  0.542062489  0.542062489
     0.541064561  0.874744737  0.874744737
     0.541841461  0.876410780  0.206862974
     0.541119241  0.874426854  0.541119241
     0.541841461  0.206862974  0.876410780
     0.542297081  0.208359571  0.208359571
     0.542062489  0.208328448  0.542062489
     0.541119241  0.541119241  0.874426854
     0.542062489  0.542062489  0.208328448
     0.957887521  0.957887521  0.791572187
     0.958513101  0.958513101  0.124879804
     0.958389962  0.958389962  0.458185010
     0.958424352  0.291260174  0.792080094
     0.959152164  0.291765667  0.125246235
     0.958983299  0.291515954  0.458477075
     0.957387222  0.624661055  0.791187928
     0.958732821  0.625157607  0.124153449
     0.958111058  0.624946546  0.458064289
     0.291260174  0.958424352  0.792080094
     0.291765667  0.959152164  0.125246235
     0.291515954  0.958983299  0.458477075
     0.291300614  0.291300614  0.792792777
     0.292731505  0.292731505  0.126551349
     0.293675665  0.293675665  0.461256045
     0.289345731  0.624813150  0.793748536
     0.291597806  0.625835937  0.124692662
     0.289570141  0.628220503  0.457357275
     0.624661055  0.957387222  0.791187928
     0.625157607  0.958732821  0.124153449
     0.624946546  0.958111058  0.458064289
     0.624813150  0.289345731  0.793748536
     0.625835937  0.291597806  0.124692662
     0.628220503  0.289570141  0.457357275
     0.623367661  0.623367661  0.789585118
     0.625074568  0.625074568  0.124503569
     0.629296684  0.629296684  0.447841803

  ion indices of the primitive-cell ions
   primitive index   ion index
                 1           1
                 2           2
                 3           3
                 4           4
                 5           5
                 6           6
                 7           7
                 8           8
                 9           9
                10          10
                11          11
                12          12
                13          13
                14          14
                15          15
                16          16
                17          17
                18          18
                19          19
                20          20
                21          21
                22          22
                23          23
                24          24
                25          25
                26          26
                27          27
                28          28
                29          29
                30          30
                31          31
                32          32
                33          33
                34          34
                35          35
                36          36
                37          37
                38          38
                39          39
                40          40
                41          41
                42          42
                43          43
                44          44
                45          45
                46          46
                47          47
                48          48
                49          49
                50          50
                51          51
                52          52
                53          53
                54          54
                55          55
                56          56
                57          57
                58          58
                59          59
                60          60
                61          61
                62          62
                63          63
                64          64
                65          65
                66          66
                67          67
                68          68
                69          69
                70          70
                71          71
                72          72
                73          73
                74          74
                75          75
                76          76
                77          77
                78          78
                79          79
                80          80
                81          81
                82          82
                83          83
                84          84
                85          85
                86          86
                87          87
                88          88
                89          89
                90          90
                91          91
                92          92
                93          93
                94          94
                95          95
                96          96
                97          97
                98          98
                99          99
               100         100
               101         101
               102         102
               103         103
               104         104
               105         105
               106         106
               107         107
               108         108
               109         109
               110         110
               111         111
               112         112
               113         113
               114         114
               115         115
               116         116
               117         117
               118         118
               119         119
               120         120
               121         121
               122         122
               123         123
               124         124
               125         125
               126         126
               127         127
               128         128
               129         129
               130         130
               131         131
               132         132
               133         133
               134         134
               135         135
               136         136
               137         137
               138         138
               139         139
               140         140
               141         141
               142         142
               143         143
               144         144
               145         145
               146         146
               147         147
               148         148
               149         149
               150         150
               151         151
               152         152
               153         153
               154         154
               155         155
               156         156
               157         157
               158         158
               159         159
               160         160
               161         161
               162         162
               163         163
               164         164
               165         165
               166         166
               167         167
               168         168
               169         169
               170         170
               171         171
               172         172
               173         173
               174         174
               175         175
               176         176
               177         177
               178         178
               179         179
               180         180
               181         181
               182         182
               183         183
               184         184
               185         185
               186         186
               187         187
               188         188
               189         189
               190         190
               191         191
               192         192
               193         193
               194         194
               195         195
               196         196
               197         197
               198         198
               199         199
               200         200
               201         201
               202         202
               203         203
               204         204
               205         205
               206         206
               207         207
               208         208
               209         209
               210         210
               211         211
               212         212
               213         213
               214         214
               215         215

----------------------------------------------------------------------------------------

 
 
 KPOINTS: pymatgen v1.1 with grid density = 2210 /

Automatic generation of k-mesh.
 Grid dimensions read from file:
 generate k-points for:    1    1    1

 Generating k-lattice:

  Cartesian coordinates                     Fractional coordinates (reciprocal lattice)
     0.093931455  0.000000000  0.000000000     1.000000000  0.000000000  0.000000000
     0.000000000  0.093931455  0.000000000     0.000000000  1.000000000  0.000000000
     0.000000000  0.000000000  0.093931455     0.000000000  0.000000000  1.000000000

  Length of vectors
     0.093931455  0.093931455  0.093931455

  Shift w.r.t. Gamma in fractional coordinates (k-lattice)
     0.000000000  0.000000000  0.000000000

 
 Subroutine IBZKPT returns following result:
 ===========================================
 
 Found      1 irreducible k-points:
 
 Following reciprocal coordinates:
            Coordinates               Weight
  0.000000  0.000000  0.000000      1.000000
 
 Following cartesian coordinates:
            Coordinates               Weight
  0.000000  0.000000  0.000000      1.000000
 
 
 Subroutine IBZKPT_HF returns following result:
 ==============================================
 
 Found      1 k-points in 1st BZ
 the following      1 k-points will be used (e.g. in the exchange kernel)
 Following reciprocal coordinates:   # in IRBZ
  0.000000  0.000000  0.000000    1.00000000   1 t-inv F
 -----------------------------------------------------------------------------
|                                                                             |
|           W    W    AA    RRRRR   N    N  II  N    N   GGGG   !!!           |
|           W    W   A  A   R    R  NN   N  II  NN   N  G    G  !!!           |
|           W    W  A    A  R    R  N N  N  II  N N  N  G       !!!           |
|           W WW W  AAAAAA  RRRRR   N  N N  II  N  N N  G  GGG   !            |
|           WW  WW  A    A  R   R   N   NN  II  N   NN  G    G                |
|           W    W  A    A  R    R  N    N  II  N    N   GGGG   !!!           |
|                                                                             |
|     The number of bands has been changed from the values supplied in        |
|     the INCAR file. This is a result of running the parallel version.       |
|     The orbitals not found in the WAVECAR file will be initialized with     |
|     random numbers, which is usually adequate. For correlated               |
|     calculations, however, you should redo the groundstate calculation.     |
|     I found NBANDS = 450. Now, NBANDS = 464.                                |
|                                                                             |
 -----------------------------------------------------------------------------



--------------------------------------------------------------------------------------------------------




 Dimension of arrays:
   k-points           NKPTS =      1   k-points in BZ     NKDIM =      1   number of bands    NBANDS=    464
   number of dos      NEDOS =    301   number of ions     NIONS =    215
   non local maximal  LDIM  =      4   non local SUM 2l+1 LMDIM =      8
   total plane-waves  NPLWV = 343000
   max r-space proj   IRMAX =   3182   max aug-charges    IRDMAX=   9703
   dimension x,y,z NGX =    70 NGY =   70 NGZ =   70
   dimension x,y,z NGXF=   140 NGYF=  140 NGZF=  140
   support grid    NGXF=   140 NGYF=  140 NGZF=  140
   ions per type =               1 214
   NGX,Y,Z   is equivalent  to a cutoff of  10.93, 10.93, 10.93 a.u.
   NGXF,Y,Z  is equivalent  to a cutoff of  21.86, 21.86, 21.86 a.u.

 SYSTEM =  unknown system                          
 POSCAR =  Si1 C214                                

 Startparameter for this run:
   NWRITE =      2    write-flag & timer
   PREC   = accura    normal or accurate (medium, high low for compatibility)
   ISTART =      0    job   : 0-new  1-cont  2-samecut
   ICHARG =      2    charge: 1-file 2-atom 10-const
   ISPIN  =      2    spin polarized calculation?
   LNONCOLLINEAR =      F non collinear calculations
   LSORBIT =      F    spin-orbit coupling
   INIWAV =      1    electr: 0-lowe 1-rand  2-diag
   LASPH  =      F    aspherical Exc in radial PAW
 Electronic Relaxation 1
   ENCUT  =  400.0 eV  29.40 Ry    5.42 a.u.  17.36 17.36 17.36*2*pi/ulx,y,z
   ENINI  =  400.0     initial cutoff
   ENAUG  =  644.9 eV  augmentation charge cutoff
   NELM   =    100;   NELMIN=  2; NELMDL=  0     # of ELM steps 
   EDIFF  = 0.1E-04   stopping-criterion for ELM
   LREAL  =      T    real-space projection
   NLSPLINE    = F    spline interpolate recip. space projectors
   LCOMPAT=      F    compatible to vasp.4.4
   GGA_COMPAT  = T    GGA compatible to vasp.4.4-vasp.4.6
   LMAXPAW     = -100 max onsite density
   LMAXMIX     =    2 max onsite mixed and CHGCAR
   VOSKOWN=      0    Vosko Wilk Nusair interpolation
   ROPT   =   -0.00025  -0.00025
 Ionic relaxation
   EDIFFG = -.1E-01   stopping-criterion for IOM
   NSW    =     99    number of steps for IOM
   NBLOCK =      1;   KBLOCK =     99    inner block; outer block 
   IBRION =      2    ionic relax: 0-MD 1-quasi-New 2-CG
   NFREE  =      1    steps in history (QN), initial steepest desc. (CG)
   ISIF   =      2    stress and relaxation
   IWAVPR =     11    prediction:  0-non 1-charg 2-wave 3-comb
   ISYM   =      3    0-nonsym 1-usesym 2-fastsym
   LCORR  =      T    Harris-Foulkes like correction to forces

   POTIM  = 0.5000    time-step for ionic-motion
   TEIN   =    0.0    initial temperature
   TEBEG  =    0.0;   TEEND  =   0.0 temperature during run
   SMASS  =  -3.00    Nose mass-parameter (am)
   estimated Nose-frequenzy (Omega)   =  0.10E-29 period in steps = 0.13E+47 mass=  -0.259E-26a.u.
   SCALEE = 1.0000    scale energy and forces
   NPACO  =    256;   APACO  = 10.0  distance and # of slots for P.C.
   PSTRESS=    0.0 pullay stress

  Mass of Ions in am
   POMASS =  28.09 12.01
  Ionic Valenz
   ZVAL   =   4.00  4.00
  Atomic Wigner-Seitz radii
   RWIGS  =  -1.00 -1.00
  virtual crystal weights 
   VCA    =   1.00  1.00
   NELECT =     860.0000    total number of electrons
   NUPDOWN=       2.0000    fix difference up-down

 DOS related values:
   EMIN   =  10.00;   EMAX   =-10.00  energy-range for DOS
   EFERMI =   0.00;   METHOD = LEGACY      
   ISMEAR =     0;   SIGMA  =   0.05  broadening in eV -4-tet -1-fermi 0-gaus

 Electronic relaxation 2 (details)
   IALGO  =     58    algorithm
   LDIAG  =      T    sub-space diagonalisation (order eigenvalues)
   LSUBROT=      F    optimize rotation matrix (better conditioning)
   TURBO    =      0    0=normal 1=particle mesh
   IRESTART =      0    0=no restart 2=restart with 2 vectors
   NREBOOT  =      0    no. of reboots
   NMIN     =      0    reboot dimension
   EREF     =   0.00    reference energy to select bands
   IMIX   =      4    mixing-type and parameters
     AMIX     =   0.40;   BMIX     =  1.00
     AMIX_MAG =   1.60;   BMIX_MAG =  1.00
     AMIN     =   0.10
     WC   =   100.;   INIMIX=   1;  MIXPRE=   1;  MAXMIX= -45

 Intra band minimization:
   WEIMIN = 0.0010     energy-eigenvalue tresh-hold
   EBREAK =  0.54E-08  absolut break condition
   DEPER  =   0.30     relativ break condition  

   TIME   =   0.40     timestep for ELM

  volume/ion in A,a.u.               =       5.61        37.87
  Fermi-wavevector in a.u.,A,eV,Ry     =   1.462352  2.763445 29.095711  2.138474
  Thomas-Fermi vector in A             =   2.578576
 
 Write flags
   LWAVE        =      T    write WAVECAR
   LDOWNSAMPLE  =      F    k-point downsampling of WAVECAR
   LCHARG       =      T    write CHGCAR
   LVTOT        =      F    write LOCPOT, total local potential
   LVHAR        =      F    write LOCPOT, Hartree potential only
   WRT_POTENTIAL= false  ! write potential to hdf5 file
   LELF         =      F    write electronic localiz. function (ELF)
   LORBIT       =     11    0 simple, 1 ext, 2 COOP (PROOUT), +10 PAW based schemes


 Dipole corrections
   LMONO      =      F    monopole corrections only (constant potential shift)
   LDIPOL     =      F    correct potential (dipole corrections)
   IDIPOL     =      0    1-x, 2-y, 3-z, 4-all directions 
   EPSILON    =  1.0000000 bulk dielectric constant
   LVACPOTAV  =      F  vacuum potentials using an averaging scheme for the charge density
   VACPOTFLAT =  0.1000000 required flatness to determine vacuum potential
 Exchange correlation treatment:
   GGA     = PE    functional components
   XC_C    = 1    coefficients multiplying the functional components
   LIBXC   =     F    Libxc                    
   VOSKOWN =     0    Vosko Wilk Nusair interpolation
   EXXOEP  =     0    0=HF, 1=EXX-LHF (local Hartree Fock) 2=EXX OEP
   LHFCALC =     T    Hartree Fock is set to
   LSYMGRAD=     F    symmetrize gradient (conserves proper symmetry)
   PRECFOCK=fast      Normal, Fast or Accurate (Low or Medium for compatibility)
   LRHFCALC=     F    long range Hartree Fock
   LRSCOR  =     F    long range correlation only (use DFT for short range part)
   LTHOMAS =     F    Thomas Fermi screening in HF
   LMODELHF=     F    short range full HF, long range fraction AEXX
   FOCKCORR=     1    mode to apply convergence corrections
   LFOCKACE=     T    use Adeptively-Compressed-Exchange operator
   ENCUT4O =  -1.0   cutoff for four orbital integrals eV
   LMAXFOCK=     4    L truncation for augmentation on plane wave grid
   LMAXFOCKAE=  -1    L truncation for all-electron charge restoration on plane wave grid
   NMAXFOCKAE=   1    number of basis functions for all-electron charge restoration
   LFOCKAEDFT=     F  apply the AE augmentation even for DFT
   NKREDX  =     1    reduce k-point grid by
   NKREDY  =     1    reduce k-point grid by
   NKREDZ  =     1    reduce k-point grid by
   SHIFTRED=     F    shift reduced grid of Gamma
   HFKIDENT=     F    idential grid for each k-point
   ODDONLY =     F    use only odd q-grid points
   EVENONLY=     F    use only even q-grid points
   HFALPHA =   -1.0000 decay constant for conv. correction
   MCALPHA =    0.0000 extent of test-charge in conv. correction in multipole expansion
   AEXX    =    0.2500 exact exchange contribution
   HFSCREEN=    0.2000 screening length (either q_TF or 0.3 A-1)
   HFSCREENC=   0.2000 screening length for correlation (either q_TF or 0.3 A-1)
   HFRCUT  =    0.0000 spherical cutoff for potential kernel
   ALDAX   =    0.7500 LDA exchange part
   AGGAX   =    0.7500 GGA exchange part
   AMGGAX  =    0.7500 meta-GGA exchange part
   ALDAC   =    1.0000 LDA correlation
   AGGAC   =    1.0000 GGA correlation
   AMGGAC  =    1.0000 meta-GGA correlation
   ENCUTFOCK=  -1.0 apply spherical cutoff to Coloumb kernel
   NBANDSGWLOW=     1    first orbital included in HF term
   NBLOCK_FOCK=    64    blocking factor in FOCK_ACC

 Parameters of functionals:
   PE:
     No parameter
 
 Van der Waals corrections
   IVDW    =     0    specifies the selected vdW correction

 Linear response parameters
   LEPSILON=     F    determine dielectric tensor
   LRPA    =     F    only Hartree local field effects (RPA)
   LNABLA  =     F    use nabla operator in PAW spheres
   LVEL    =     F    velocity operator in full k-point grid
   CSHIFT  =0.1000    complex shift for real part using Kramers Kronig
   OMEGAMAX=  -1.0    maximum frequency
   DEG_THRESHOLD= 0.2000000E-02 threshold for treating states as degnerate
   RTIME   =   -0.100 relaxation time in fs
  (WPLASMAI=    0.000 imaginary part of plasma frequency in eV, 0.658/RTIME)
   DFIELD  = 0.0000000 0.0000000 0.0000000 field for delta impulse in time
 
  Optional k-point grid parameters
   LKPOINTS_OPT  =     F    use optional k-point grid
   KPOINTS_OPT_MODE=     1    mode for optional k-point grid
 
 Orbital magnetization related:
   ORBITALMAG=     F  switch on orbital magnetization
   LCHIMAG   =     F  perturbation theory with respect to B field
   DQ        =  0.001000  dq finite difference perturbation B field
   LLRAUG    =     F  two centre corrections for induced B field
   LBONE     =     F  B-component reconstruction in AE one-centre
   LVGVCALC  =     T  calculate vGv susceptibility
   LVGVAPPL  =     F  apply vGv susceptibility instead of pGv for G=0

 Random number generation:
   RANDOM_GENERATOR = DEFAULT
   PCG_SEED         = not used


--------------------------------------------------------------------------------------------------------


 conjugate gradient relaxation of ions
 charge density and potential will be updated during run
 spin polarized calculation
 Conjugate gradient for all bands (Freysoldt, et al. PRB 79, 241103 (2009))
 preconditioned conjugated gradient                                        
 perform sub-space diagonalisation
    before iterative eigenvector-optimisation
 modified Broyden-mixing scheme, WC =      100.0
 initial mixing is a Kerker type mixing with AMIX =  0.4000 and BMIX =      1.0000
 Hartree-type preconditioning will be used
 using additional bands            34
 real space projection scheme for non local part
 use partial core corrections
 no Harris-corrections to forces 
 use gradient corrections 
 use of overlap-Matrix (Vanderbilt PP)
 Gauss-broadening in eV      SIGMA  =   0.05


--------------------------------------------------------------------------------------------------------


  energy-cutoff  :      400.00
  volume of cell :     1206.61
      direct lattice vectors                 reciprocal lattice vectors
    10.646061000  0.000000000  0.000000000     0.093931455  0.000000000  0.000000000
     0.000000000 10.646061000  0.000000000     0.000000000  0.093931455  0.000000000
     0.000000000  0.000000000 10.646061000     0.000000000  0.000000000  0.093931455

  length of vectors
    10.646061000 10.646061000 10.646061000     0.093931455  0.093931455  0.093931455


 
 k-points in units of 2pi/SCALE and weight: pymatgen v1.1 with grid density = 2210 /
   0.00000000  0.00000000  0.00000000       1.000
 
 k-points in reciprocal lattice and weights: pymatgen v1.1 with grid density = 2210 /
   0.00000000  0.00000000  0.00000000       1.000
 
 position of ions in fractional coordinates (direct lattice) 
   0.50000000  0.50000000  0.50000000
   0.04148690  0.04148690  0.87512020
   0.04211248  0.04211248  0.20842781
   0.04161004  0.04161004  0.54181499
   0.04126718  0.37484239  0.87584655
   0.04261278  0.37533895  0.20881207
   0.04188894  0.37505345  0.54193571
   0.04084784  0.70823433  0.87475376
   0.04157565  0.70873983  0.20791991
   0.04101670  0.70848405  0.54152292
   0.37484239  0.04126718  0.87584655
   0.37533895  0.04261278  0.20881207
   0.37505345  0.04188894  0.54193571
   0.37492543  0.37492543  0.87549643
   0.37663234  0.37663234  0.21041488
   0.37070332  0.37070332  0.55215820
   0.37416406  0.70840219  0.87530734
   0.37518685  0.71065427  0.20625146
   0.37177950  0.71042986  0.54264272
   0.70823433  0.04084784  0.87475376
   0.70873983  0.04157565  0.20791991
   0.70848405  0.04101670  0.54152292
   0.70840219  0.37416406  0.87530734
   0.71065427  0.37518685  0.20625146
   0.71042986  0.37177950  0.54264272
   0.70726849  0.70726849  0.87344865
   0.70869939  0.70869939  0.20720722
   0.70632433  0.70632433  0.53874396
   0.79069901  0.79069901  0.79069901
   0.79170927  0.79170927  0.12409738
   0.79164043  0.79164043  0.45770292
   0.79170927  0.12409738  0.79170927
   0.79214968  0.12494179  0.12494179
   0.79313703  0.12358922  0.45815854
   0.79164043  0.45770292  0.79164043
   0.79313703  0.45815854  0.12358922
   0.79167155  0.45793751  0.45793751
   0.12409738  0.79170927  0.79170927
   0.12494179  0.79214968  0.12494179
   0.12358922  0.79313703  0.45815854
   0.12494179  0.12494179  0.79214968
   0.12558717  0.12558717  0.12558717
   0.12525526  0.12525526  0.45893544
   0.12358922  0.45815854  0.79313703
   0.12525526  0.45893544  0.12525526
   0.12557315  0.45888076  0.45888076
   0.45770292  0.79164043  0.79164043
   0.45815854  0.79313703  0.12358922
   0.45793751  0.79167155  0.45793751
   0.45815854  0.12358922  0.79313703
   0.45893544  0.12525526  0.12525526
   0.45888076  0.12557315  0.45888076
   0.45793751  0.45793751  0.79167155
   0.45888076  0.45888076  0.12557315
   0.04148690  0.87512020  0.04148690
   0.04126718  0.87584655  0.37484239
   0.04084784  0.87475376  0.70823433
   0.04211248  0.20842781  0.04211248
   0.04261278  0.20881207  0.37533895
   0.04157565  0.20791991  0.70873983
   0.04161004  0.54181499  0.04161004
   0.04188894  0.54193571  0.37505345
   0.04101670  0.54152292  0.70848405
   0.37484239  0.87584655  0.04126718
   0.37492543  0.87549643  0.37492543
   0.37416406  0.87530734  0.70840219
   0.37533895  0.20881207  0.04261278
   0.37663234  0.21041488  0.37663234
   0.37518685  0.20625146  0.71065427
   0.37505345  0.54193571  0.04188894
   0.37070332  0.55215820  0.37070332
   0.37177950  0.54264272  0.71042986
   0.70823433  0.87475376  0.04084784
   0.70840219  0.87530734  0.37416406
   0.70726849  0.87344865  0.70726849
   0.70873983  0.20791991  0.04157565
   0.71065427  0.20625146  0.37518685
   0.70869939  0.20720722  0.70869939
   0.70848405  0.54152292  0.04101670
   0.71042986  0.54264272  0.37177950
   0.70632433  0.53874396  0.70632433
   0.79157219  0.95788752  0.95788752
   0.79208009  0.95842435  0.29126017
   0.79118793  0.95738722  0.62466105
   0.79208009  0.29126017  0.95842435
   0.79279278  0.29130061  0.29130061
   0.79374854  0.28934573  0.62481315
   0.79118793  0.62466105  0.95738722
   0.79374854  0.62481315  0.28934573
   0.78958512  0.62336766  0.62336766
   0.12487980  0.95851310  0.95851310
   0.12524624  0.95915216  0.29176567
   0.12415345  0.95873282  0.62515761
   0.12524624  0.29176567  0.95915216
   0.12655135  0.29273151  0.29273151
   0.12469266  0.29159781  0.62583594
   0.12415345  0.62515761  0.95873282
   0.12469266  0.62583594  0.29159781
   0.12450357  0.62507457  0.62507457
   0.45818501  0.95838996  0.95838996
   0.45847708  0.95898330  0.29151595
   0.45806429  0.95811106  0.62494655
   0.45847708  0.29151595  0.95898330
   0.46125604  0.29367567  0.29367567
   0.45735728  0.28957014  0.62822050
   0.45806429  0.62494655  0.95811106
   0.45735728  0.62822050  0.28957014
   0.44784180  0.62929668  0.62929668
   0.87512020  0.04148690  0.04148690
   0.87584655  0.04126718  0.37484239
   0.87475376  0.04084784  0.70823433
   0.87584655  0.37484239  0.04126718
   0.87549643  0.37492543  0.37492543
   0.87530734  0.37416406  0.70840219
   0.87475376  0.70823433  0.04084784
   0.87530734  0.70840219  0.37416406
   0.87344865  0.70726849  0.70726849
   0.20842781  0.04211248  0.04211248
   0.20881207  0.04261278  0.37533895
   0.20791991  0.04157565  0.70873983
   0.20881207  0.37533895  0.04261278
   0.21041488  0.37663234  0.37663234
   0.20625146  0.37518685  0.71065427
   0.20791991  0.70873983  0.04157565
   0.20625146  0.71065427  0.37518685
   0.20720722  0.70869939  0.70869939
   0.54181499  0.04161004  0.04161004
   0.54193571  0.04188894  0.37505345
   0.54152292  0.04101670  0.70848405
   0.54193571  0.37505345  0.04188894
   0.55215820  0.37070332  0.37070332
   0.54264272  0.37177950  0.71042986
   0.54152292  0.70848405  0.04101670
   0.54264272  0.71042986  0.37177950
   0.53874396  0.70632433  0.70632433
   0.95788752  0.79157219  0.95788752
   0.95842435  0.79208009  0.29126017
   0.95738722  0.79118793  0.62466105
   0.95851310  0.12487980  0.95851310
   0.95915216  0.12524624  0.29176567
   0.95873282  0.12415345  0.62515761
   0.95838996  0.45818501  0.95838996
   0.95898330  0.45847708  0.29151595
   0.95811106  0.45806429  0.62494655
   0.29126017  0.79208009  0.95842435
   0.29130061  0.79279278  0.29130061
   0.28934573  0.79374854  0.62481315
   0.29176567  0.12524624  0.95915216
   0.29273151  0.12655135  0.29273151
   0.29159781  0.12469266  0.62583594
   0.29151595  0.45847708  0.95898330
   0.29367567  0.46125604  0.29367567
   0.28957014  0.45735728  0.62822050
   0.62466105  0.79118793  0.95738722
   0.62481315  0.79374854  0.28934573
   0.62336766  0.78958512  0.62336766
   0.62515761  0.12415345  0.95873282
   0.62583594  0.12469266  0.29159781
   0.62507457  0.12450357  0.62507457
   0.62494655  0.45806429  0.95811106
   0.62822050  0.45735728  0.28957014
   0.62929668  0.44784180  0.62929668
   0.87441283  0.87441283  0.87441283
   0.87505821  0.87505821  0.20785032
   0.87474474  0.87474474  0.54106456
   0.87505821  0.20785032  0.87505821
   0.87590262  0.20829073  0.20829073
   0.87641078  0.20686297  0.54184146
   0.87474474  0.54106456  0.87474474
   0.87641078  0.54184146  0.20686297
   0.87442685  0.54111924  0.54111924
   0.20785032  0.87505821  0.87505821
   0.20829073  0.87590262  0.20829073
   0.20686297  0.87641078  0.54184146
   0.20829073  0.20829073  0.87590262
   0.20930099  0.20930099  0.20930099
   0.20835957  0.20835957  0.54229708
   0.20686297  0.54184146  0.87641078
   0.20835957  0.54229708  0.20835957
   0.20832845  0.54206249  0.54206249
   0.54106456  0.87474474  0.87474474
   0.54184146  0.87641078  0.20686297
   0.54111924  0.87442685  0.54111924
   0.54184146  0.20686297  0.87641078
   0.54229708  0.20835957  0.20835957
   0.54206249  0.20832845  0.54206249
   0.54111924  0.54111924  0.87442685
   0.54206249  0.54206249  0.20832845
   0.95788752  0.95788752  0.79157219
   0.95851310  0.95851310  0.12487980
   0.95838996  0.95838996  0.45818501
   0.95842435  0.29126017  0.79208009
   0.95915216  0.29176567  0.12524624
   0.95898330  0.29151595  0.45847708
   0.95738722  0.62466105  0.79118793
   0.95873282  0.62515761  0.12415345
   0.95811106  0.62494655  0.45806429
   0.29126017  0.95842435  0.79208009
   0.29176567  0.95915216  0.12524624
   0.29151595  0.95898330  0.45847708
   0.29130061  0.29130061  0.79279278
   0.29273151  0.29273151  0.12655135
   0.29367567  0.29367567  0.46125604
   0.28934573  0.62481315  0.79374854
   0.29159781  0.62583594  0.12469266
   0.28957014  0.62822050  0.45735728
   0.62466105  0.95738722  0.79118793
   0.62515761  0.95873282  0.12415345
   0.62494655  0.95811106  0.45806429
   0.62481315  0.28934573  0.79374854
   0.62583594  0.29159781  0.12469266
   0.62822050  0.28957014  0.45735728
   0.62336766  0.62336766  0.78958512
   0.62507457  0.62507457  0.12450357
   0.62929668  0.62929668  0.44784180
 
 position of ions in cartesian coordinates  (Angst):
   5.32303050  5.32303050  5.32303050
   0.44167206  0.44167206  9.31658299
   0.44833202  0.44833202  2.21893521
   0.44298301  0.44298301  5.76819543
   0.43933290  3.99059498  9.32431580
   0.45365823  3.99588131  2.22302605
   0.44595223  3.99284195  5.76948064
   0.43486855  7.53990591  9.31268194
   0.44261688  7.54528742  2.21352800
   0.43666630  7.54256437  5.76508609
   3.99059498  0.43933290  9.32431580
   3.99588131  0.45365823  2.22302605
   3.99284195  0.44595223  5.76948064
   3.99147902  3.99147902  9.32058841
   4.00965085  4.00965085  2.24008967
   3.94653012  3.94653012  5.87830984
   3.98337343  7.54169297  9.31857531
   3.99426209  7.56566870  2.19576566
   3.95798720  7.56327961  5.77700755
   7.53990591  0.43486855  9.31268194
   7.54528742  0.44261688  2.21352800
   7.54256437  0.43666630  5.76508609
   7.54169297  3.98337343  9.31857531
   7.56566870  3.99426209  2.19576566
   7.56327961  3.95798720  5.77700755
   7.52962354  7.52962354  9.29878762
   7.54485690  7.54485690  2.20594073
   7.51957195  7.51957195  5.73550101
   8.41782988  8.41782988  8.41782988
   8.42858520  8.42858520  1.32114827
   8.42785230  8.42785230  4.87273319
   8.42858520  1.32114827  8.42858520
   8.43327378  1.33013797  1.33013797
   8.44378516  1.31573837  4.87758375
   8.42785230  4.87273319  8.42785230
   8.44378516  4.87758375  1.31573837
   8.42818364  4.87523068  4.87523068
   1.32114827  8.42858520  8.42858520
   1.33013797  8.43327378  1.33013797
   1.31573837  8.44378516  4.87758375
   1.33013797  1.33013797  8.43327378
   1.33700869  1.33700869  1.33700869
   1.33347518  1.33347518  4.88585468
   1.31573837  4.87758375  8.44378516
   1.33347518  4.88585468  1.33347518
   1.33685937  4.88527255  4.88527255
   4.87273319  8.42785230  8.42785230
   4.87758375  8.44378516  1.31573837
   4.87523068  8.42818364  4.87523068
   4.87758375  1.31573837  8.44378516
   4.88585468  1.33347518  1.33347518
   4.88527255  1.33685937  4.88527255
   4.87523068  4.87523068  8.42818364
   4.88527255  4.88527255  1.33685937
   0.44167206  9.31658299  0.44167206
   0.43933290  9.32431580  3.99059498
   0.43486855  9.31268194  7.53990591
   0.44833202  2.21893521  0.44833202
   0.45365823  2.22302605  3.99588131
   0.44261688  2.21352800  7.54528742
   0.44298301  5.76819543  0.44298301
   0.44595223  5.76948064  3.99284195
   0.43666630  5.76508609  7.54256437
   3.99059498  9.32431580  0.43933290
   3.99147902  9.32058841  3.99147902
   3.98337343  9.31857531  7.54169297
   3.99588131  2.22302605  0.45365823
   4.00965085  2.24008967  4.00965085
   3.99426209  2.19576566  7.56566870
   3.99284195  5.76948064  0.44595223
   3.94653012  5.87830984  3.94653012
   3.95798720  5.77700755  7.56327961
   7.53990591  9.31268194  0.43486855
   7.54169297  9.31857531  3.98337343
   7.52962354  9.29878762  7.52962354
   7.54528742  2.21352800  0.44261688
   7.56566870  2.19576566  3.99426209
   7.54485690  2.20594073  7.54485690
   7.54256437  5.76508609  0.43666630
   7.56327961  5.77700755  3.95798720
   7.51957195  5.73550101  7.51957195
   8.42712579 10.19772898 10.19772898
   8.43253300 10.20344412  3.10077358
   8.42303495 10.19240277  6.65017969
   8.43253300  3.10077358 10.20344412
   8.44012027  3.10120410  3.10120410
   8.45029534  3.08039230  6.65179891
   8.42303495  6.65017969 10.19240277
   8.45029534  6.65179891  3.08039230
   8.40597133  6.63641015  6.63641015
   1.32947801 10.20438894 10.20438894
   1.33337906 10.21119245  3.10615509
   1.32174520 10.20672810  6.65546602
   1.33337906  3.10615509 10.21119245
   1.34727338  3.11643746  3.11643746
   1.32748569  3.10436803  6.66268757
   1.32174520  6.65546602 10.20672810
   1.32748569  6.66268757  3.10436803
   1.32547259  6.65458198  6.65458198
   4.87786557 10.20307799 10.20307799
   4.88097491 10.20939470  3.10349663
   4.87658036 10.20010877  6.65321905
   4.88097491  3.10349663 10.20939470
   4.91055999  3.12648905  3.12648905
   4.86905345  3.08278139  6.68807380
   4.87658036  6.65321905 10.20010877
   4.86905345  6.68807380  3.08278139
   4.76775116  6.69953088  6.69953088
   9.31658299  0.44167206  0.44167206
   9.32431580  0.43933290  3.99059498
   9.31268194  0.43486855  7.53990591
   9.32431580  3.99059498  0.43933290
   9.32058841  3.99147902  3.99147902
   9.31857531  3.98337343  7.54169297
   9.31268194  7.53990591  0.43486855
   9.31857531  7.54169297  3.98337343
   9.29878762  7.52962354  7.52962354
   2.21893521  0.44833202  0.44833202
   2.22302605  0.45365823  3.99588131
   2.21352800  0.44261688  7.54528742
   2.22302605  3.99588131  0.45365823
   2.24008967  4.00965085  4.00965085
   2.19576566  3.99426209  7.56566870
   2.21352800  7.54528742  0.44261688
   2.19576566  7.56566870  3.99426209
   2.20594073  7.54485690  7.54485690
   5.76819543  0.44298301  0.44298301
   5.76948064  0.44595223  3.99284195
   5.76508609  0.43666630  7.54256437
   5.76948064  3.99284195  0.44595223
   5.87830984  3.94653012  3.94653012
   5.77700755  3.95798720  7.56327961
   5.76508609  7.54256437  0.43666630
   5.77700755  7.56327961  3.95798720
   5.73550101  7.51957195  7.51957195
  10.19772898  8.42712579 10.19772898
  10.20344412  8.43253300  3.10077358
  10.19240277  8.42303495  6.65017969
  10.20438894  1.32947801 10.20438894
  10.21119245  1.33337906  3.10615509
  10.20672810  1.32174520  6.65546602
  10.20307799  4.87786557 10.20307799
  10.20939470  4.88097491  3.10349663
  10.20010877  4.87658036  6.65321905
   3.10077358  8.43253300 10.20344412
   3.10120410  8.44012027  3.10120410
   3.08039230  8.45029534  6.65179891
   3.10615509  1.33337906 10.21119245
   3.11643746  1.34727338  3.11643746
   3.10436803  1.32748569  6.66268757
   3.10349663  4.88097491 10.20939470
   3.12648905  4.91055999  3.12648905
   3.08278139  4.86905345  6.68807380
   6.65017969  8.42303495 10.19240277
   6.65179891  8.45029534  3.08039230
   6.63641015  8.40597133  6.63641015
   6.65546602  1.32174520 10.20672810
   6.66268757  1.32748569  3.10436803
   6.65458198  1.32547259  6.65458198
   6.65321905  4.87658036 10.20010877
   6.68807380  4.86905345  3.08278139
   6.69953088  4.76775116  6.69953088
   9.30905231  9.30905231  9.30905231
   9.31592303  9.31592303  2.21278722
   9.31258582  9.31258582  5.76020632
   9.31592303  2.21278722  9.31592303
   9.32491273  2.21747580  2.21747580
   9.33032263  2.20227584  5.76847725
   9.31258582  5.76020632  9.31258582
   9.33032263  5.76847725  2.20227584
   9.30920163  5.76078845  5.76078845
   2.21278722  9.31592303  9.31592303
   2.21747580  9.32491273  2.21747580
   2.20227584  9.33032263  5.76847725
   2.21747580  2.21747580  9.32491273
   2.22823112  2.22823112  2.22823112
   2.21820870  2.21820870  5.77332781
   2.20227584  5.76847725  9.33032263
   2.21820870  5.77332781  2.21820870
   2.21787736  5.77083032  5.77083032
   5.76020632  9.31258582  9.31258582
   5.76847725  9.33032263  2.20227584
   5.76078845  9.30920163  5.76078845
   5.76847725  2.20227584  9.33032263
   5.77332781  2.21820870  2.21820870
   5.77083032  2.21787736  5.77083032
   5.76078845  5.76078845  9.30920163
   5.77083032  5.77083032  2.21787736
  10.19772898 10.19772898  8.42712579
  10.20438894 10.20438894  1.32947801
  10.20307799 10.20307799  4.87786557
  10.20344412  3.10077358  8.43253300
  10.21119245  3.10615509  1.33337906
  10.20939470  3.10349663  4.88097491
  10.19240277  6.65017969  8.42303495
  10.20672810  6.65546602  1.32174520
  10.20010877  6.65321905  4.87658036
   3.10077358 10.20344412  8.43253300
   3.10615509 10.21119245  1.33337906
   3.10349663 10.20939470  4.88097491
   3.10120410  3.10120410  8.44012027
   3.11643746  3.11643746  1.34727338
   3.12648905  3.12648905  4.91055999
   3.08039230  6.65179891  8.45029534
   3.10436803  6.66268757  1.32748569
   3.08278139  6.68807380  4.86905345
   6.65017969 10.19240277  8.42303495
   6.65546602 10.20672810  1.32174520
   6.65321905 10.20010877  4.87658036
   6.65179891  3.08039230  8.45029534
   6.66268757  3.10436803  1.32748569
   6.68807380  3.08278139  4.86905345
   6.63641015  6.63641015  8.40597133
   6.65458198  6.65458198  1.32547259
   6.69953088  6.69953088  4.76775116
 


--------------------------------------------------------------------------------------------------------


 use serial FFT for orbitals x direction half grid
 k-point     1 :   0.0000 0.0000 0.0000  plane waves:   10988

 maximum and minimum number of plane-waves per node :     10988    10988

 maximum number of plane-waves:     10988
 maximum index in each direction: 
   IXMAX=   17   IYMAX=   17   IZMAX=   17
   IXMIN=    0   IYMIN=  -17   IZMIN=  -17


 serial   3D FFT for wavefunctions
 parallel 3D FFT for charge:
    minimum data exchange during FFTs selected (reduces bandwidth)


 FFT grid for exact exchange (Hartree Fock) 
  NGX = 36; NGY = 36; NGZ = 36

 use serial FFT for orbitals x direction half grid
 
 Radii for the augmentation spheres in the non-local exchange
 for species   1 augmentation radius   1.055 (default was   0.989)
       energy cutoff for augmentation   1600.0
 for species   2 augmentation radius   0.795 (default was   0.699)
       energy cutoff for augmentation   1600.0
 Maximum index for augmentation-charges in exchange           179
  SETUP_FOCK is finished

 total amount of memory used by VASP MPI-rank0   160456. kBytes
=======================================================================

   base      :      30000. kBytes
   nonlr-proj:      47522. kBytes
   fftplans  :       7389. kBytes
   grid      :      41870. kBytes
   one-center:        660. kBytes
   HF        :          9. kBytes
   wavefun   :      33006. kBytes
 
     INWAV:  cpu time      0.0000: real time      0.0000
 Broyden mixing: mesh for mixing (old mesh)
   NGX = 35   NGY = 35   NGZ = 35
  (NGX  =140   NGY  =140   NGZ  =140)
  gives a total of  42875 points

 initial charge density was supplied:
 charge density of overlapping atoms calculated
 number of electron     860.0000000 magnetization     129.0000000
 charge density for first step will be calculated from the start-wavefunctions


--------------------------------------------------------------------------------------------------------


 Maximum index for non-local projection operator          3059
 Maximum index for augmentation-charges           642 (set IRDMAX)


--------------------------------------------------------------------------------------------------------


 First call to EWALD:  gamma=   0.166
 Maximum number of real-space cells 3x 3x 3
 Maximum number of reciprocal cells 3x 3x 3

    FEWALD:  cpu time      0.0207: real time      0.0207


--------------------------------------- Ionic step        1  -------------------------------------------




--------------------------------------- Iteration      1(   1)  ---------------------------------------


    POTLOK:  cpu time      0.1918: real time      0.1280
    SETDIJ:  cpu time      0.0496: real time      0.0496
    TRIAL :  cpu time      0.9214: real time      0.7851
    CORREC:  cpu time      0.0012: real time      0.0012
    --------------------------------------------
      LOOP:  cpu time      1.1774: real time      0.9773

 eigenvalue-minimisations  :  1872
 total energy-change (2. order) : 0.9302139E+03  (-0.4683816E+05)
 number of electron     860.0000000 magnetization     129.0000000
 augmentation part      860.0000000 magnetization     129.0000000

 Free energy of the ion-electron system (eV)
  ---------------------------------------------------
  alpha Z        PSCENC =      3112.96981489
  Ewald energy   TEWEN  =    -37428.60844868
  -Hartree energ DENC   =     -1979.38766892
  -exchange      EXHF   =         0.00000000
  -V(xc)+E(xc)   XCENC  =      3075.95815540
  PAW double counting   =      8121.70411583   -13301.02721045
  entropy T*S    EENTRO =        -0.02243406
  eigenvalues    EBANDS =      8271.46932018
  atomic energy  EATOM  =     31057.15824686
  ---------------------------------------------------
  free energy    TOTEN  =       930.21389107 eV

  energy without entropy =      930.23632512  energy(sigma->0) =      930.22510809
  exchange ACFDT corr.  =         0.00000000  see jH, gK, PRB 81, 115126


--------------------------------------------------------------------------------------------------------




--------------------------------------- Iteration      1(   2)  ---------------------------------------


    TRIAL :  cpu time      0.7849: real time      0.6724
    CORREC:  cpu time      0.0006: real time      0.0006
    --------------------------------------------
      LOOP:  cpu time      0.7862: real time      0.6744

 eigenvalue-minimisations  :  2544
 total energy-change (2. order) :-0.7921007E+04  (-0.7715861E+04)
 number of electron     860.0000000 magnetization     129.0000000
 augmentation part      860.0000000 magnetization     129.0000000

 Free energy of the ion-electron system (eV)
  ---------------------------------------------------
  alpha Z        PSCENC =      3112.96981489
  Ewald energy   TEWEN  =    -37428.60844868
  -Hartree energ DENC   =     -1979.38766892
  -exchange      EXHF   =         0.00000000
  -V(xc)+E(xc)   XCENC  =      3075.95815540
  PAW double counting   =      8121.70411583   -13301.02721045
  entropy T*S    EENTRO =        -0.00000027
  eigenvalues    EBANDS =       350.43988458
  atomic energy  EATOM  =     31057.15824686
  ---------------------------------------------------
  free energy    TOTEN  =     -6990.79311075 eV

  energy without entropy =    -6990.79311047  energy(sigma->0) =    -6990.79311061
  exchange ACFDT corr.  =         0.00000000  see jH, gK, PRB 81, 115126


--------------------------------------------------------------------------------------------------------




--------------------------------------- Iteration      1(   3)  ---------------------------------------


    TRIAL :  cpu time      0.6400: real time      0.5496
    CORREC:  cpu time      0.0005: real time      0.0005
    --------------------------------------------
      LOOP:  cpu time      0.6407: real time      0.5509

 eigenvalue-minimisations  :  2048
 total energy-change (2. order) :-0.6900990E+03  (-0.6861512E+03)
 number of electron     860.0000000 magnetization     129.0000000
 augmentation part      860.0000000 magnetization     129.0000000

 Free energy of the ion-electron system (eV)
  ---------------------------------------------------
  alpha Z        PSCENC =      3112.96981489
  Ewald energy   TEWEN  =    -37428.60844868
  -Hartree energ DENC   =     -1979.38766892
  -exchange      EXHF   =         0.00000000
  -V(xc)+E(xc)   XCENC  =      3075.95815540
  PAW double counting   =      8121.70411583   -13301.02721045
  entropy T*S    EENTRO =        -0.00000000
  eigenvalues    EBANDS =      -339.65914739
  atomic energy  EATOM  =     31057.15824686
  ---------------------------------------------------
  free energy    TOTEN  =     -7680.89214244 eV

  energy without entropy =    -7680.89214244  energy(sigma->0) =    -7680.89214244
  exchange ACFDT corr.  =         0.00000000  see jH, gK, PRB 81, 115126


--------------------------------------------------------------------------------------------------------




[...]
  650                  map_scatter                           0.003709                 28   8
 
 Flat profile
 ============
 
             routine name                   CPU           calls
 ---------------------------------------------------------------
 potlok                                102.530647         271
 fock_fwd                              101.662035        4320
 fft3d                                  52.861524      319847
 rspher_all                             35.156410         676
 fock_bck                               31.873010        4320
 map_scatter                            30.072179        9469
 dllmm_trans_eccp_nl_fock               20.800693       51030
 m_sumb_d                               20.621594       37236
 rad_lda_xc_spin                        19.623679        7436
 total_time                             16.574145           1
 edwav                                   9.826384         240
 acc_cufft_makeplan                      8.527485         297
 fft_and_gather                          8.128299        4530
 rad_gga_xc_spin                         6.356040        7436
 redis_pw                                6.126607       33813
 potxc                                   5.638281          15
 batched_fft                             4.895636      243000
 fock_all_dblbuf                         4.608112         270
 set_dd_paw                              4.537521         286
 m_alltoall_d                            4.456414      258489
 fft3d_mu                                4.202409      233280
 fftwav                                  4.099984      195844
 init_acc                                3.054716           1
 rpromu_hf_acc                           2.938925      173340
 eccp                                    2.870197       28130
 setdij_                                 2.689625         662
 redis_proj                              1.808717       29628
 setwdes                                 1.739915      131811
 racc0mu_hf_acc                          1.590194      122310
 augmentation_charge                     1.230791         255
 eddiag                                  1.149044         149
 depsum_two_bands_rholm_trace_m          1.035601      122310
 w1_copy                                 0.992857      170221
 racc0_acc                               0.979380       22620
 rpromu_acc                              0.964808        5931
 lincom                                  0.960375        1540
 fft3d_mpi                               0.957731      132420
 apply_gfac_exchange_mu_acc              0.919249      116640
 wrk_allocate                            0.912700          15
 set_rsgf_all                            0.902110         286
 rpro1_acc                               0.858511        6960
 dfftw_execute                           0.853343        4215
 lapack                                  0.834331         941
 rpro_isp                                0.778924         465
 fftext_mpi                              0.774050       47863
 m_alltoallv_z                           0.726639        9469
 stufak                                  0.717753          15
 pw_charge_trace_mu_acc                  0.655056      122310
 calc_dllmm_trans_and_overl_foc          0.648740      116640
 orthch                                  0.640570         255
 soft_charge_sym                         0.631878         255
 vhamil_trace_mu_acc                     0.625615      116640
 elmin_all                               0.580412          15
 sphpro_fast                             0.563236          16
 reduce                                  0.481012        4320
 fftbas_plan_mpi                         0.458581        8417
 choleski                                0.437506         512
 m_bcast_d                               0.435313        3395
 map_gather                              0.427024        9469
 eddav                                   0.420769           5
 depsum_sym                              0.366555         255
 overl                                   0.353588        9600
 pw_charge                               0.345815       13770
 overl1                                  0.334419       15660
 orth1                                   0.334381       18333
 fftwav_mpi                              0.292224      195844
 contraction                             0.265786       51030
 fock_force                              0.265168          15
 rsp                                     0.249449          15
 m_ibcast_d_from                         0.248791      379860
 wfinit                                  0.208085           1
 rad_pot                                 0.197001        7452
 w1_dot                                  0.194085        7018
 m_ibcast_z_from                         0.184307      263490
 fock_charge_mu                          0.171227      122310
 force_and_stress                        0.169194          15
 m_ireduce_d_to                          0.161585      250560
 m_ireduce_z_to                          0.160570      250560
 vhamil                                  0.147315        9583
 proall                                  0.131001          15
 kinhamil                                0.126979        9583
 m_bcast_z                               0.126019         928
 raccmu_                                 0.112356         941
 fock_set_gfac_vkpt                      0.079284        4320
 fftwav_w1                               0.066361      162784
 fock_set_fsg_der                        0.062936          15
 wavpre_noio                             0.061287          14
 fft_gq                                  0.058694         255
 w1_dscal                                0.055668        6960
 hamilt_local                            0.055199        8642
 map_backward                            0.055053        8904
 acc_init_cublas                         0.052787           1
 map_forward                             0.052638        7930
 set_charge                              0.049990         255
 pw_charge_trace_mu                      0.049425      122310
 wrk_deallocate                          0.045341          15
 depsum_two_bands_rholm_trace_m          0.044150      122310
 pothar                                  0.042456         271
 fock_set_fsg                            0.040312          15
 apply_gfac_der_mu                       0.033190        5670
 rad_proj                                0.029490       14880
 acc_init_cusolver                       0.027225           1
 racc0mu_acc                             0.026352         941
 apply_gfac_weight_mu                    0.025631        5670
 hamiltmu                                0.025284         941
 strnlr                                  0.024163          15
 densta                                  0.022210         266
 strelo                                  0.021154          15
 bandgap                                 0.017923          15
 ggemm                                   0.017202        1231
 overl_mu                                0.015122         941
 strehar                                 0.014705          15
 fock_ace_acc_apply                      0.014278         178
 rad_pot_weight                          0.013005        7444
 m_max_i                                 0.012166         300
 fock_set_gfac_der                       0.011606         210
 inisym                                  0.011385           1
 setup_precond                           0.010929         290
 phaser                                  0.008360        1015
 forloc                                  0.008181          15
 strkin                                  0.008011          15
 fornlr                                  0.007670          15
 newband                                 0.007189         951
 waitred                                 0.006893        4320
 rcp                                     0.005938          15
 rad_aug_charge                          0.005781        7438
 waitgth                                 0.005736        4320
 fftbrc_mpi                              0.005451        8417
 rad_gga_xc                              0.005121          16
 rprolat_der                             0.005065          30
 apply_precond                           0.004835         651
 rad_lda_xc                              0.004788          16
 rad_aug_proj                            0.004543        7440
 forhar                                  0.003335          15
 rproxyz                                 0.002809          30
 posmap                                  0.002766           2
 fewald                                  0.002625          15
 splcof                                  0.002069          55
 fordep                                  0.001582          15
 w1_daxpy                                0.001240         178
 redis_pw_all                            0.000839         240
 splval                                  0.000764        5326
 w1_projall                              0.000732         651
 fock_ace_construct                      0.000569           1
 phaser_hf                               0.000409        4320
 redis_pw_over_bands                     0.000156         269
 truncate_high_frequency_w1              0.000150        1231
 set_dd_magatom                          0.000122          30
 brgrid                                  0.000087           1
 crpa_reader                             0.000031           1
 acc_cufft_makeplans                     0.000031           5
 shift_bands_between_low_high            0.000015          58
 vectorpot                               0.000005           1
 rotate_active_occupied_orbital          0.000004          15
 kpar_sync_all                           0.000002          15
 ---------------------------------------------------------------
  summed up times     549.9296908378601     
 
 Accumulative profile
 ====================
 
             routine name                   CPU           calls
 ---------------------------------------------------------------
 total_time                            549.929691           1
 elmin_all                             400.000938          15
 fock_all_dblbuf                       207.972017         270
 fock_fwd                              155.883005        4320
 potlok                                132.582293         271
 edwav                                 127.678425         240
 eddiag                                119.150305         149
 force_and_stress                       90.005193          15
 fock_force                             63.650676          15
 fft3d                                  52.861524      319847
 fftwav_mpi                             51.580166      195844
 fftwav                                 51.287942      195844
 fftwav_w1                              47.841077      162784
 fft3d_mpi                              39.282206      132420
 set_dd_paw                             37.755683         286
 fock_bck                               35.569524        4320
 rspher_all                             35.156410         676
 fftbrc_mpi                             32.650908        8417
 fftbas_plan_mpi                        32.645457        8417
 map_scatter                            30.072179        9469
 map_backward                           29.884955        8904
 rad_pot                                26.186630        7452
 dllmm_trans_eccp_nl_fock               20.800693       51030
 m_sumb_d                               20.621594       37236
 rad_lda_xc_spin                        19.623679        7436
 rprolat_der                            14.899581          30
 strnlr                                 11.394720          15
 set_charge                             10.882507         255
 fft_and_gather                         10.600325        4530
 batched_fft                             9.098045      243000
 acc_cufft_makeplan                      8.527485         297
 rproxyz                                 8.165645          30
 soft_charge_sym                         8.051270         255
 redis_pw                                7.497383       33813
 potxc                                   7.307205          15
 rad_gga_xc_spin                         6.356040        7436
 orthch                                  5.315189         255
 redis_proj                              4.894354       29628
 m_alltoall_d                            4.456414      258489
 fft3d_mu                                4.202409      233280
 fftext_mpi                              4.011106       47863
 rpro_isp                                3.812304         465
 fornlr                                  3.788682          15
 fock_charge_mu                          3.545654      122310
 setdij_                                 3.189664         662
 eddav                                   3.178156           5
 init_acc                                3.056102           1
 rpromu_hf_acc                           2.938925      173340
 eccp                                    2.870197       28130
 augmentation_charge                     2.070314         255
 setwdes                                 1.739915      131811
 racc0mu_hf_acc                          1.590194      122310
 map_forward                             1.448578        7930
 wrk_allocate                            1.275556          15
 fft_gq                                  1.177445         255
 depsum_two_bands_rholm_trace_m          1.079751      122310
 depsum_two_bands_rholm_trace_m          1.035601      122310
 hamilt_local                            1.006627        8642
 w1_copy                                 0.992857      170221
 racc0_acc                               0.979380       22620
 rpromu_acc                              0.964808        5931
 lincom                                  0.960375        1540
 apply_gfac_exchange_mu_acc              0.919249      116640
 set_rsgf_all                            0.902110         286
 rpro1_acc                               0.858511        6960
 kinhamil                                0.855563        9583
 dfftw_execute                           0.853343        4215
 lapack                                  0.834331         941
 reduce                                  0.803167        4320
 redis_pw_over_bands                     0.768167         269
 redis_pw_all                            0.768011         240
 wavpre_noio                             0.733345          14
 m_alltoallv_z                           0.726639        9469
 stufak                                  0.717753          15
 depsum_sym                              0.710932         255
 pw_charge_trace_mu                      0.704481      122310
 pw_charge_trace_mu_acc                  0.655056      122310
 calc_dllmm_trans_and_overl_foc          0.648740      116640
 vhamil_trace_mu_acc                     0.625615      116640
 sphpro_fast                             0.611225          16
 acc_cufft_makeplans                     0.510751           5
 choleski                                0.437506         512
 m_bcast_d                               0.435313        3395
 map_gather                              0.427024        9469
 fordep                                  0.400420          15
 overl                                   0.353588        9600
 pw_charge                               0.345815       13770
 overl1                                  0.334419       15660
 wfinit                                  0.334396           1
 orth1                                   0.334381       18333
 fewald                                  0.285714          15
 proall                                  0.266142          15
 contraction                             0.265786       51030
 densta                                  0.265229         266
 rsp                                     0.249449          15
 m_ibcast_d_from                         0.248791      379860
 hamiltmu                                0.230565         941
 w1_dot                                  0.194085        7018
 m_ibcast_z_from                         0.184307      263490
 m_ireduce_d_to                          0.161585      250560
 m_ireduce_z_to                          0.160570      250560
 raccmu_                                 0.153830         941
 vhamil                                  0.147315        9583
 m_bcast_z                               0.126019         928
 newband                                 0.114322         951
 fock_set_gfac_vkpt                      0.079694        4320
 fock_ace_acc_apply                      0.077313         178
 fock_set_fsg_der                        0.062936          15
 w1_dscal                                0.055668        6960
 pothar                                  0.053193         271
 acc_init_cublas                         0.052787           1
 wrk_deallocate                          0.045341          15
 fock_set_fsg                            0.040312          15
 apply_gfac_der_mu                       0.033190        5670
 rad_proj                                0.029490       14880
 acc_init_cusolver                       0.027225           1
 strelo                                  0.026958          15
 racc0mu_acc                             0.026352         941
 apply_gfac_weight_mu                    0.025631        5670
 fock_ace_construct                      0.021409           1
 strehar                                 0.018557          15
 bandgap                                 0.017923          15
 ggemm                                   0.017202        1231
 w1_projall                              0.015991         651
 overl_mu                                0.015122         941
 inisym                                  0.014151           1
 rad_pot_weight                          0.013005        7444
 m_max_i                                 0.012166         300
 fock_set_gfac_der                       0.011606         210
 setup_precond                           0.010929         290
 strkin                                  0.010265          15
 forloc                                  0.010113          15
 phaser                                  0.008360        1015
 waitred                                 0.006893        4320
 rcp                                     0.005938          15
 rad_aug_charge                          0.005781        7438
 waitgth                                 0.005736        4320
 forhar                                  0.005526          15
 rad_gga_xc                              0.005121          16
 apply_precond                           0.004835         651
 rad_lda_xc                              0.004788          16
 rad_aug_proj                            0.004543        7440
 posmap                                  0.002766           2
 splcof                                  0.002069          55
 w1_daxpy                                0.001240         178
 brgrid                                  0.000788           1
 splval                                  0.000764        5326
 phaser_hf                               0.000409        4320
 truncate_high_frequency_w1              0.000150        1231
 set_dd_magatom                          0.000122          30
 crpa_reader                             0.000031           1
 shift_bands_between_low_high            0.000015          58
 vectorpot                               0.000005           1
 rotate_active_occupied_orbital          0.000004          15
 kpar_sync_all                           0.000002          15
 ---------------------------------------------------------------
 
Profiling took   0.739086  0.393235  0.003593  0.003517 seconds
Profiling took   0.447703 seconds
