 running   16 mpi-ranks, with    1 threads/rank, on    4 nodes
 distrk:  each k-point on   16 cores,    1 groups
 distr:  one band on    1 cores,   16 groups
 OpenACC runtime initialized ...   16 GPUs detected
 vasp.6.4.3 19Mar24 (build Jun 20 2024 15:24:57) gamma-only                      
 POSCAR found type information on POSCAR SiC 
 POSCAR found :  2 types and     215 ions
 Reading from existing POTCAR
 scaLAPACK will be used selectively (only on CPU)
 Reading from existing POTCAR
 LDA part: xc-table for (Slater+PW92), standard interpolation
 -----------------------------------------------------------------------------
|                                                                             |
|           W    W    AA    RRRRR   N    N  II  N    N   GGGG   !!!           |
|           W    W   A  A   R    R  NN   N  II  NN   N  G    G  !!!           |
|           W    W  A    A  R    R  N N  N  II  N N  N  G       !!!           |
|           W WW W  AAAAAA  RRRRR   N  N N  II  N  N N  G  GGG   !            |
|           WW  WW  A    A  R   R   N   NN  II  N   NN  G    G                |
|           W    W  A    A  R    R  N    N  II  N    N   GGGG   !!!           |
|                                                                             |
|     The number of bands has been changed from the values supplied in        |
|     the INCAR file. This is a result of running the parallel version.       |
|     The orbitals not found in the WAVECAR file will be initialized with     |
|     random numbers, which is usually adequate. For correlated               |
|     calculations, however, you should redo the groundstate calculation.     |
|     I found NBANDS = 450. Now, NBANDS = 464.                                |
|                                                                             |
 -----------------------------------------------------------------------------

 POSCAR, INCAR and KPOINTS ok, starting setup
 FFT: planning ... GRIDC
 FFT: planning ... GRID_SOFT
 FFT: planning ... GRID
 WAVECAR not read
 WARNING: random wavefunctions but no delay for mixing, default for NELMDL
 entering main loop
       N       E                     dE             d eps       ncg     rms          ort
DAV:   1     0.930213891066E+03    0.93021E+03   -0.46838E+05   464   0.158E+03
DAV:   2    -0.699079311075E+04   -0.79210E+04   -0.77159E+04   464   0.381E+02
DAV:   3    -0.768089214244E+04   -0.69010E+03   -0.68615E+03   464   0.111E+02
DAV:   4    -0.769825819915E+04   -0.17366E+02   -0.17323E+02   464   0.206E+01
DAV:   5    -0.248108513840E+04    0.52172E+04   -0.10400E+02   464   0.191E+01
 gam= 0.000 g(H,U,f)=  0.978E+02 0.946E+00 0.140E-12 ort(H,U,f) = 0.000E+00 0.000E+00 0.000E+00
SDA:   6    -0.237917553016E+04    0.10191E+03   -0.10400E+02   464   0.988E+02 0.000E+00
 gam= 0.000 trial= 0.400  step= 0.601 mean= 0.400
 gam= 0.047 g(H,U,f)=  0.435E+01 0.286E+00 0.185E-04 ort(H,U,f) =-0.995E+00 0.339E+00-0.160E-05
CGA:   7    -0.240877569007E+04   -0.29600E+02   -0.29679E+02   464   0.463E+01-0.657E+00
 gam= 0.047 trial= 0.410  step= 0.726 mean= 0.410
 gam= 0.240 g(H,U,f)=  0.908E+00 0.206E+00 0.620E-06 ort(H,U,f) =-0.124E+00 0.112E+00-0.102E-05
CGA:   8    -0.241044440321E+04   -0.16687E+01   -0.16708E+01   464   0.111E+01-0.120E-01
 gam= 0.240 trial= 0.426  step= 0.513 mean= 0.426
 gam= 0.205 g(H,U,f)=  0.168E+00 0.602E-01 0.144E-12 ort(H,U,f) =-0.832E-01 0.875E-01 0.215E-12
CGA:   9    -0.241072952695E+04   -0.28512E+00   -0.28481E+00   464   0.229E+00 0.431E-02
 gam= 0.205 trial= 0.430  step= 0.993 mean= 0.430
 gam= 0.281 g(H,U,f)=  0.519E-01 0.123E-01 0.383E-14 ort(H,U,f) =-0.349E-01 0.344E-01 0.119E-13
CGA:  10    -0.241084338411E+04   -0.11386E+00   -0.11400E+00   464   0.642E-01-0.486E-03
 gam= 0.281 trial= 0.458  step= 0.955 mean= 0.458
 gam= 0.357 g(H,U,f)=  0.210E-01 0.188E-02 0.173E-25 ort(H,U,f) =-0.660E-02 0.685E-02 0.147E-24
CGA:  11    -0.241087403945E+04   -0.30655E-01   -0.30589E-01   464   0.229E-01 0.257E-03
 gam= 0.357 trial= 0.483  step= 0.636 mean= 0.483
 gam= 0.180 g(H,U,f)=  0.390E-02 0.219E-03 0.802E-18 ort(H,U,f) =-0.767E-03 0.886E-03-0.675E-17
CGA:  12    -0.241088136574E+04   -0.73263E-02   -0.73173E-02   464   0.412E-02 0.119E-03
 gam= 0.180 trial= 0.491  step= 0.720 mean= 0.491
 gam= 0.203 g(H,U,f)=  0.738E-03 0.994E-04 0.261E-22 ort(H,U,f) =-0.414E-04 0.723E-04 0.135E-21
CGA:  13    -0.241088286080E+04   -0.14951E-02   -0.14916E-02   464   0.837E-03 0.310E-04
 gam= 0.203 trial= 0.502  step= 0.761 mean= 0.502
 gam= 0.294 g(H,U,f)=  0.219E-03 0.269E-04 0.205E-19 ort(H,U,f) =-0.289E-05 0.212E-04-0.109E-19
CGA:  14    -0.241088318385E+04   -0.32305E-03   -0.32067E-03   464   0.246E-03 0.183E-04
 gam= 0.294 trial= 0.515  step= 0.788 mean= 0.515
 gam= 0.456 g(H,U,f)=  0.957E-04 0.164E-04 0.410E-17 ort(H,U,f) =-0.718E-05 0.175E-04 0.584E-18
CGA:  15    -0.241088328429E+04   -0.10044E-03   -0.99036E-04   464   0.112E-03 0.103E-04
 gam= 0.456 trial= 0.529  step= 0.879 mean= 0.529
 gam= 0.423 g(H,U,f)=  0.439E-04 0.347E-05 0.171E-17 ort(H,U,f) =-0.877E-05 0.946E-05 0.170E-17
CGA:  16    -0.241088333575E+04   -0.51453E-04   -0.51335E-04   464   0.474E-04 0.687E-06
 gam= 0.423 trial= 0.546  step= 1.191 mean= 0.546
 gam= 0.457 g(H,U,f)=  0.212E-04 0.507E-06 0.148E-20 ort(H,U,f) =-0.805E-05 0.856E-06-0.389E-19
CGA:  17    -0.241088336182E+04   -0.26075E-04   -0.28395E-04   464   0.217E-04-0.720E-05
 gam= 0.457 trial= 0.579  step= 0.870 mean= 0.579
 gam= 0.297 g(H,U,f)=  0.619E-05 0.245E-06 0.153E-18 ort(H,U,f) =-0.545E-06-0.653E-06 0.762E-19
CGA:  18    -0.241088336964E+04   -0.78158E-05   -0.79904E-05   464   0.643E-05-0.120E-05
 gam= 0.297 trial= 0.593  step= 0.800 mean= 0.593
 final diagonalization
   1 F= -.24108834E+04 E0= -.24108834E+04  d E =-.241088E+04  mag=     2.0000
 curvature:   0.00 expect dE= 0.000E+00 dE for cont linesearch  0.000E+00
 trial: gam= 0.00000 g(F)=  0.102E+01 g(S)=  0.000E+00 ort = 0.000E+00 (trialstep = 0.100E+01)
 search vector abs. value=  0.102E+01
 bond charge predicted
 wavefunctions rotated
 writing wavefunctions
       N       E                     dE             d eps       ncg     rms          ort
 gam= 0.000 g(H,U,f)=  0.318E+02 0.462E+00 0.282E-15 ort(H,U,f) = 0.000E+00 0.000E+00 0.000E+00
SDA:   1    -0.239674885736E+04    0.14135E+02    0.00000E+00   464   0.323E+02 0.000E+00
 gam= 0.000 trial= 0.604  step= 0.723 mean= 0.604
 gam= 0.186 g(H,U,f)=  0.567E+01 0.321E+00 0.353E-15 ort(H,U,f) = 0.383E+00-0.365E+00-0.235E-15
CGA:   2    -0.240841577810E+04   -0.11667E+02   -0.11666E+02   464   0.600E+01 0.173E-01
 gam= 0.186 trial= 0.609  step= 0.700 mean= 0.609
 gam= 0.101 g(H,U,f)=  0.543E+00 0.617E-01 0.430E-15 ort(H,U,f) =-0.120E-01 0.225E-01 0.386E-15
CGA:   3    -0.241051628552E+04   -0.21005E+01   -0.20997E+01   464   0.604E+00 0.105E-01
 gam= 0.101 trial= 0.614  step= 0.615 mean= 0.614
 gam= 0.220 g(H,U,f)=  0.115E+00 0.185E-01 0.209E-15 ort(H,U,f) =-0.174E-01 0.163E-01 0.563E-15
CGA:   4    -0.241070244911E+04   -0.18616E+00   -0.18617E+00   464   0.133E+00-0.111E-02
 gam= 0.220 trial= 0.614  step= 0.831 mean= 0.614
 gam= 0.370 g(H,U,f)=  0.430E-01 0.626E-02 0.101E-16 ort(H,U,f) =-0.877E-02 0.887E-02 0.153E-17
CGA:   5    -0.241075763051E+04   -0.55181E-01   -0.55166E-01   464   0.492E-01 0.102E-03
 gam= 0.370 trial= 0.625  step= 0.834 mean= 0.625
 gam= 0.362 g(H,U,f)=  0.167E-01 0.109E-02 0.356E-15 ort(H,U,f) =-0.254E-02 0.249E-02 0.135E-14
CGA:   6    -0.241077817251E+04   -0.20542E-01   -0.20551E-01   464   0.178E-01-0.490E-04
 gam= 0.362 trial= 0.635  step= 0.720 mean= 0.635
 gam= 0.240 g(H,U,f)=  0.400E-02 0.268E-03 0.150E-14 ort(H,U,f) =-0.434E-03 0.440E-03 0.441E-14
CGA:   7    -0.241078457469E+04   -0.64022E-02   -0.64018E-02   464   0.426E-02 0.574E-05
 gam= 0.240 trial= 0.640  step= 0.742 mean= 0.640
 gam= 0.206 g(H,U,f)=  0.833E-03 0.465E-04 0.744E-16 ort(H,U,f) =-0.483E-04 0.430E-04 0.580E-15
CGA:   8    -0.241078615803E+04   -0.15833E-02   -0.15837E-02   464   0.879E-03-0.525E-05
 gam= 0.206 trial= 0.645  step= 0.911 mean= 0.645
 gam= 0.307 g(H,U,f)=  0.248E-03 0.222E-04 0.249E-18 ort(H,U,f) =-0.277E-04 0.234E-04 0.386E-17
CGA:   9    -0.241078655767E+04   -0.39964E-03   -0.40021E-03   464   0.270E-03-0.427E-05
 gam= 0.307 trial= 0.658  step= 0.870 mean= 0.658
 gam= 0.308 g(H,U,f)=  0.784E-04 0.491E-05 0.325E-18 ort(H,U,f) =-0.998E-05 0.820E-05-0.585E-19
CGA:  10    -0.241078667456E+04   -0.11690E-03   -0.11709E-03   464   0.833E-04-0.178E-05
 gam= 0.308 trial= 0.669  step= 0.851 mean= 0.669
 gam= 0.291 g(H,U,f)=  0.221E-04 0.216E-05 0.110E-19 ort(H,U,f) =-0.345E-05 0.363E-05 0.173E-18
CGA:  11    -0.241078670977E+04   -0.35209E-04   -0.35192E-04   464   0.243E-04 0.184E-06
 gam= 0.291 trial= 0.678  step= 0.808 mean= 0.678
 gam= 0.371 g(H,U,f)=  0.840E-05 0.609E-06 0.340E-20 ort(H,U,f) = 0.320E-06-0.363E-07 0.139E-19
CGA:  12    -0.241078671961E+04   -0.98354E-05   -0.98171E-05   464   0.901E-05 0.283E-06
 gam= 0.371 trial= 0.684  step= 0.768 mean= 0.684
 final diagonalization
   2 F= -.24107867E+04 E0= -.24107867E+04  d E =0.966500E-01  mag=     2.0000
 trial-energy change:    0.096650  1 .order    0.087142   -1.017634    1.191919
 step:   0.4542(harm=  0.4606)  dis= 0.02313  next Energy= -2411.113564 (dE=-0.230E+00)
 bond charge predicted
 wavefunctions rotated
 writing wavefunctions
       N       E                     dE             d eps       ncg     rms          ort
 gam= 0.000 g(H,U,f)=  0.938E+01 0.112E+00 0.144E-19 ort(H,U,f) = 0.000E+00 0.000E+00 0.000E+00
SDA:   1    -0.240688081117E+04    0.39059E+01    0.00000E+00   464   0.949E+01 0.000E+00
 gam= 0.000 trial= 0.688  step= 0.750 mean= 0.688
 gam= 0.185 g(H,U,f)=  0.168E+01 0.827E-01 0.833E-20 ort(H,U,f) = 0.817E-01-0.856E-01-0.352E-20
CGA:   2    -0.241043872080E+04   -0.35579E+01   -0.35581E+01   464   0.176E+01-0.382E-02
 gam= 0.185 trial= 0.691  step= 0.684 mean= 0.691
 gam= 0.094 g(H,U,f)=  0.160E+00 0.599E-02 0.318E-17 ort(H,U,f) =-0.516E-02 0.403E-02 0.135E-15
CGA:   3    -0.241104040817E+04   -0.60169E+00   -0.60168E+00   464   0.166E+00-0.113E-02
 gam= 0.094 trial= 0.691  step= 0.638 mean= 0.691
 gam= 0.192 g(H,U,f)=  0.263E-01 0.549E-02 0.628E-15 ort(H,U,f) =-0.333E-02 0.333E-02 0.199E-15
CGA:   4    -0.241109318780E+04   -0.52780E-01   -0.52780E-01   464   0.318E-01-0.294E-05
 gam= 0.192 trial= 0.688  step= 0.837 mean= 0.688
 gam= 0.342 g(H,U,f)=  0.101E-01 0.812E-03 0.720E-17 ort(H,U,f) =-0.153E-02 0.150E-02-0.404E-15
CGA:   5    -0.241110650069E+04   -0.13313E-01   -0.13317E-01   464   0.109E-01-0.311E-04
 gam= 0.342 trial= 0.696  step= 0.894 mean= 0.696
 gam= 0.361 g(H,U,f)=  0.357E-02 0.353E-03 0.184E-15 ort(H,U,f) =-0.652E-03 0.665E-03 0.463E-15
CGA:   6    -0.241111135791E+04   -0.48572E-02   -0.48559E-02   464   0.392E-02 0.124E-04
 gam= 0.361 trial= 0.706  step= 0.720 mean= 0.706
 gam= 0.266 g(H,U,f)=  0.993E-03 0.519E-04 0.597E-16 ort(H,U,f) =-0.202E-04 0.195E-04-0.124E-15
CGA:   7    -0.241111277185E+04   -0.14139E-02   -0.14140E-02   464   0.104E-02-0.710E-06
 gam= 0.266 trial= 0.706  step= 0.698 mean= 0.706
 gam= 0.230 g(H,U,f)=  0.226E-03 0.147E-04 0.773E-18 ort(H,U,f) =-0.173E-04 0.150E-04 0.124E-17
CGA:   8    -0.241111313667E+04   -0.36482E-03   -0.36481E-03   464   0.240E-03-0.231E-05
 gam= 0.230 trial= 0.706  step= 0.909 mean= 0.706
 gam= 0.308 g(H,U,f)=  0.697E-04 0.419E-05 0.338E-18 ort(H,U,f) =-0.697E-05 0.524E-05-0.118E-17
CGA:   9    -0.241111324544E+04   -0.10878E-03   -0.10895E-03   464   0.739E-04-0.173E-05
 gam= 0.308 trial= 0.716  step= 0.875 mean= 0.716
 gam= 0.296 g(H,U,f)=  0.206E-04 0.124E-05 0.473E-20 ort(H,U,f) =-0.232E-05 0.232E-05-0.171E-20
CGA:  10    -0.241111327754E+04   -0.32099E-04   -0.32099E-04   464   0.218E-04-0.339E-08
 gam= 0.296 trial= 0.724  step= 0.868 mean= 0.724
 gam= 0.266 g(H,U,f)=  0.550E-05 0.301E-06 0.225E-19 ort(H,U,f) =-0.628E-06 0.781E-06 0.226E-19
CGA:  11    -0.241111328704E+04   -0.94959E-05   -0.94848E-05   464   0.580E-05 0.154E-06
 gam= 0.266 trial= 0.731  step= 0.986 mean= 0.731
 final diagonalization
   3 F= -.24111133E+04 E0= -.24111133E+04  d E =-.229917E+00  mag=     2.0000
 curvature:  -0.23 expect dE=-0.423E-01 dE for cont linesearch -0.476E-07
 trial: gam= 0.18086 g(F)=  0.184E+00 g(S)=  0.000E+00 ort =-0.459E-03 (trialstep = 0.891E+00)
 search vector abs. value=  0.217E+00
 bond charge predicted
 wavefunctions rotated
 writing wavefunctions
       N       E                     dE             d eps       ncg     rms          ort
 gam= 0.000 g(H,U,f)=  0.422E+01 0.918E-01 0.157E-12 ort(H,U,f) = 0.000E+00 0.000E+00 0.000E+00
SDA:   1    -0.240908010420E+04    0.20332E+01    0.00000E+00   464   0.431E+01 0.000E+00
 gam= 0.000 trial= 0.744  step= 0.775 mean= 0.744
 gam= 0.249 g(H,U,f)=  0.969E+00 0.103E+00 0.105E-09 ort(H,U,f) = 0.850E-01-0.959E-01-0.130E-09
CGA:   2    -0.241075211873E+04   -0.16720E+01   -0.16724E+01   464   0.107E+01-0.109E-01
 gam= 0.249 trial= 0.746  step= 0.581 mean= 0.746
 gam= 0.114 g(H,U,f)=  0.116E+00 0.611E-02 0.541E-12 ort(H,U,f) = 0.720E-02-0.594E-02-0.435E-13
CGA:   3    -0.241106213269E+04   -0.31001E+00   -0.31047E+00   464   0.122E+00 0.126E-02
 gam= 0.114 trial= 0.737  step= 0.574 mean= 0.737
 gam= 0.181 g(H,U,f)=  0.202E-01 0.188E-02 0.130E-12 ort(H,U,f) =-0.186E-03 0.213E-03 0.117E-12
CGA:   4    -0.241109729524E+04   -0.35163E-01   -0.35162E-01   464   0.221E-01 0.271E-04
 gam= 0.181 trial= 0.729  step= 0.803 mean= 0.729
 gam= 0.321 g(H,U,f)=  0.668E-02 0.424E-03 0.726E-14 ort(H,U,f) =-0.528E-03 0.553E-03-0.127E-13
CGA:   5    -0.241110617745E+04   -0.88822E-02   -0.88811E-02   464   0.710E-02 0.253E-04
 gam= 0.321 trial= 0.733  step= 0.895 mean= 0.733
 gam= 0.336 g(H,U,f)=  0.229E-02 0.943E-04 0.231E-18 ort(H,U,f) =-0.145E-03 0.150E-03-0.516E-17
CGA:   6    -0.241110936004E+04   -0.31826E-02   -0.31821E-02   464   0.238E-02 0.524E-05
 gam= 0.336 trial= 0.741  step= 0.774 mean= 0.741
 gam= 0.237 g(H,U,f)=  0.548E-03 0.172E-04 0.374E-16 ort(H,U,f) =-0.250E-04 0.251E-04 0.313E-17
CGA:   7    -0.241111028313E+04   -0.92309E-03   -0.92309E-03   464   0.565E-03 0.463E-07
 gam= 0.237 trial= 0.743  step= 0.810 mean= 0.743
 gam= 0.235 g(H,U,f)=  0.130E-03 0.290E-05 0.646E-16 ort(H,U,f) = 0.755E-06-0.786E-06-0.767E-17
CGA:   8    -0.241111051209E+04   -0.22896E-03   -0.22896E-03   464   0.133E-03-0.314E-07
 gam= 0.235 trial= 0.746  step= 0.971 mean= 0.746
 gam= 0.367 g(H,U,f)=  0.468E-04 0.185E-05 0.210E-17 ort(H,U,f) =-0.143E-05 0.120E-05-0.322E-16
CGA:   9    -0.241111057638E+04   -0.64291E-04   -0.64318E-04   464   0.486E-04-0.234E-06
 gam= 0.367 trial= 0.757  step= 0.935 mean= 0.757
 gam= 0.414 g(H,U,f)=  0.192E-04 0.972E-06 0.660E-15 ort(H,U,f) = 0.333E-06-0.257E-06 0.421E-15
CGA:  10    -0.241111059909E+04   -0.22702E-04   -0.22695E-04   464   0.201E-04 0.760E-07
 gam= 0.414 trial= 0.766  step= 0.855 mean= 0.766
 gam= 0.424 g(H,U,f)=  0.801E-05 0.516E-06 0.874E-13 ort(H,U,f) = 0.169E-06-0.169E-06-0.860E-13
CGA:  11    -0.241111060771E+04   -0.86267E-05   -0.86267E-05   464   0.853E-05-0.109E-10
 gam= 0.424 trial= 0.771  step= 0.912 mean= 0.771
 final diagonalization
   4 F= -.24111106E+04 E0= -.24111106E+04  d E =0.267933E-02  mag=     2.0000
 trial-energy change:    0.002679  1 .order    0.003334   -0.163474    0.170142
 step:   0.4391(harm=  0.4365)  dis= 0.00828  next Energy= -2411.153658 (dE=-0.404E-01)
 bond charge predicted
 wavefunctions rotated
 writing wavefunctions
       N       E                     dE             d eps       ncg     rms          ort
 gam= 0.000 g(H,U,f)=  0.106E+01 0.213E-01 0.650E-16 ort(H,U,f) = 0.000E+00 0.000E+00 0.000E+00
SDA:   1    -0.241063447377E+04    0.47613E+00    0.00000E+00   464   0.108E+01 0.000E+00
 gam= 0.000 trial= 0.778  step= 0.798 mean= 0.778
 gam= 0.239 g(H,U,f)=  0.234E+00 0.234E-01 0.875E-18 ort(H,U,f) = 0.222E-01-0.210E-01-0.904E-18
CGA:   2    -0.241106511122E+04   -0.43064E+00   -0.43061E+00   464   0.257E+00 0.113E-02
 gam= 0.239 trial= 0.779  step= 0.593 mean= 0.779
 gam= 0.113 g(H,U,f)=  0.280E-01 0.111E-02 0.327E-16 ort(H,U,f) = 0.805E-03-0.938E-03 0.225E-16
CGA:   3    -0.241114155742E+04   -0.76446E-01   -0.76385E-01   464   0.291E-01-0.133E-03
 gam= 0.113 trial= 0.769  step= 0.594 mean= 0.769
 gam= 0.188 g(H,U,f)=  0.478E-02 0.690E-03 0.459E-18 ort(H,U,f) =-0.144E-03 0.138E-03-0.229E-17
CGA:   4    -0.241115018948E+04   -0.86321E-02   -0.86317E-02   464   0.547E-02-0.620E-05
 gam= 0.188 trial= 0.761  step= 0.836 mean= 0.761
 gam= 0.322 g(H,U,f)=  0.165E-02 0.108E-03 0.351E-17 ort(H,U,f) =-0.159E-03 0.154E-03-0.120E-17
CGA:   5    -0.241115247526E+04   -0.22858E-02   -0.22860E-02   464   0.176E-02-0.440E-05
 gam= 0.322 trial= 0.764  step= 0.928 mean= 0.764
 gam= 0.343 g(H,U,f)=  0.568E-03 0.356E-04 0.142E-18 ort(H,U,f) =-0.598E-04 0.624E-04 0.776E-18
CGA:   6    -0.241115329122E+04   -0.81597E-03   -0.81575E-03   464   0.604E-03 0.265E-05
 gam= 0.343 trial= 0.773  step= 0.802 mean= 0.773
 gam= 0.252 g(H,U,f)=  0.146E-03 0.582E-05 0.341E-18 ort(H,U,f) =-0.898E-05 0.950E-05-0.204E-17
CGA:   7    -0.241115353368E+04   -0.24246E-03   -0.24245E-03   464   0.152E-03 0.522E-06
 gam= 0.252 trial= 0.774  step= 0.854 mean= 0.774
 gam= 0.258 g(H,U,f)=  0.379E-04 0.140E-05 0.709E-17 ort(H,U,f) =-0.319E-05 0.190E-05-0.270E-17
CGA:   8    -0.241115359864E+04   -0.64961E-04   -0.65013E-04   464   0.393E-04-0.130E-05
 gam= 0.258 trial= 0.778  step= 0.993 mean= 0.778
 gam= 0.332 g(H,U,f)=  0.125E-04 0.514E-06 0.229E-16 ort(H,U,f) =-0.107E-05 0.515E-06 0.280E-16
CGA:   9    -0.241115361792E+04   -0.19276E-04   -0.19336E-04   464   0.131E-04-0.552E-06
 gam= 0.332 trial= 0.789  step= 0.896 mean= 0.789
 gam= 0.308 g(H,U,f)=  0.387E-05 0.156E-06 0.474E-18 ort(H,U,f) = 0.627E-07 0.151E-06 0.218E-17
CGA:  10    -0.241115362370E+04   -0.57772E-05   -0.57658E-05   464   0.403E-05 0.214E-06
 gam= 0.308 trial= 0.794  step= 0.888 mean= 0.794
 final diagonalization
   5 F= -.24111536E+04 E0= -.24111536E+04  d E =-.403367E-01  mag=     2.0000
 curvature:  -0.26 expect dE=-0.724E-02 dE for cont linesearch -0.141E-08
 trial: gam= 0.14338 g(F)=  0.281E-01 g(S)=  0.000E+00 ort =-0.344E-04 (trialstep = 0.800E+00)
 search vector abs. value=  0.325E-01
 bond charge predicted
 wavefunctions rotated
 writing wavefunctions
       N       E                     dE             d eps       ncg     rms          ort
 gam= 0.000 g(H,U,f)=  0.692E+00 0.257E-01 0.106E-14 ort(H,U,f) = 0.000E+00 0.000E+00 0.000E+00
SDA:   1    -0.241087826940E+04    0.27535E+00    0.00000E+00   464   0.717E+00 0.000E+00
 gam= 0.000 trial= 0.799  step= 0.594 mean= 0.799
 gam= 0.260 g(H,U,f)=  0.167E+00 0.192E-01 0.119E-11 ort(H,U,f) = 0.216E-01-0.218E-01-0.111E-11
CGA:   2    -0.241109161591E+04   -0.21335E+00   -0.21318E+00   464   0.186E+00-0.205E-03
 gam= 0.260 trial= 0.789  step= 0.657 mean= 0.789
 gam= 0.117 g(H,U,f)=  0.211E-01 0.766E-03 0.483E-17 ort(H,U,f) = 0.919E-03-0.758E-03-0.607E-17
CGA:   3    -0.241115285555E+04   -0.61240E-01   -0.61273E-01   464   0.219E-01 0.161E-03
 gam= 0.117 trial= 0.782  step= 0.610 mean= 0.782
 gam= 0.173 g(H,U,f)=  0.351E-02 0.279E-03 0.733E-17 ort(H,U,f) =-0.561E-04 0.588E-04 0.334E-18
CGA:   4    -0.241115953883E+04   -0.66833E-02   -0.66834E-02   464   0.379E-02 0.273E-05
 gam= 0.173 trial= 0.773  step= 0.781 mean= 0.773
 gam= 0.307 g(H,U,f)=  0.107E-02 0.915E-04 0.614E-17 ort(H,U,f) =-0.101E-03 0.102E-03 0.110E-16
CGA:   5    -0.241116102044E+04   -0.14816E-02   -0.14816E-02   464   0.116E-02 0.825E-06
 gam= 0.307 trial= 0.774  step= 0.881 mean= 0.774
 gam= 0.315 g(H,U,f)=  0.351E-03 0.152E-04 0.655E-20 ort(H,U,f) =-0.292E-04 0.305E-04 0.771E-19
CGA:   6    -0.241116153339E+04   -0.51295E-03   -0.51288E-03   464   0.367E-03 0.125E-05
 gam= 0.315 trial= 0.779  step= 0.863 mean= 0.779
 gam= 0.211 g(H,U,f)=  0.754E-04 0.216E-05 0.434E-18 ort(H,U,f) =-0.626E-05 0.668E-05-0.312E-18
CGA:   7    -0.241116169181E+04   -0.15842E-03   -0.15840E-03   464   0.775E-04 0.427E-06
 gam= 0.211 trial= 0.783  step= 0.880 mean= 0.783
 gam= 0.272 g(H,U,f)=  0.204E-04 0.689E-06 0.228E-20 ort(H,U,f) =-0.571E-06 0.450E-06-0.295E-20
CGA:   8    -0.241116172594E+04   -0.34132E-04   -0.34138E-04   464   0.211E-04-0.122E-06
 gam= 0.272 trial= 0.788  step= 0.949 mean= 0.788
 gam= 0.390 g(H,U,f)=  0.790E-05 0.328E-06 0.121E-19 ort(H,U,f) =-0.436E-06 0.387E-06-0.540E-20
CGA:   9    -0.241116173593E+04   -0.99896E-05   -0.99935E-05   464   0.822E-05-0.494E-07
 gam= 0.390 trial= 0.796  step= 0.900 mean= 0.796
 final diagonalization
   6 F= -.24111617E+04 E0= -.24111617E+04  d E =-.811224E-02  mag=     2.0000
 trial-energy change:   -0.008112  1 .order   -0.008092   -0.022481    0.006297
 step:   0.6253(harm=  0.6253)  dis= 0.00406  next Energy= -2411.162405 (dE=-0.878E-02)
 bond charge predicted
 wavefunctions rotated
 writing wavefunctions
       N       E                     dE             d eps       ncg     rms          ort
 gam= 0.000 g(H,U,f)=  0.327E-01 0.126E-02 0.104E-14 ort(H,U,f) = 0.000E+00 0.000E+00 0.000E+00
SDA:   1    -0.241114882109E+04    0.12905E-01    0.00000E+00   464   0.339E-01 0.000E+00
 gam= 0.000 trial= 0.801  step= 0.600 mean= 0.801
 gam= 0.260 g(H,U,f)=  0.796E-02 0.862E-03 0.306E-15 ort(H,U,f) = 0.101E-02-0.101E-02-0.281E-15
CGA:   2    -0.241115899737E+04   -0.10176E-01   -0.10178E-01   464   0.882E-02 0.392E-05
 gam= 0.260 trial= 0.791  step= 0.673 mean= 0.791
 gam= 0.119 g(H,U,f)=  0.101E-02 0.368E-04 0.211E-17 ort(H,U,f) = 0.310E-04-0.347E-04-0.275E-16
CGA:   3    -0.241116196369E+04   -0.29663E-02   -0.29659E-02   464   0.105E-02-0.370E-05
 gam= 0.119 trial= 0.785  step= 0.645 mean= 0.785
 gam= 0.178 g(H,U,f)=  0.173E-03 0.135E-04 0.227E-17 ort(H,U,f) =-0.247E-05 0.232E-05 0.112E-17
CGA:   4    -0.241116230082E+04   -0.33714E-03   -0.33713E-03   464   0.187E-03-0.148E-06
 gam= 0.178 trial= 0.778  step= 0.807 mean= 0.778
 gam= 0.297 g(H,U,f)=  0.522E-04 0.334E-05 0.729E-19 ort(H,U,f) =-0.350E-05 0.365E-05 0.229E-18
CGA:   5    -0.241116237621E+04   -0.75382E-04   -0.75380E-04   464   0.555E-04 0.149E-06
 gam= 0.297 trial= 0.780  step= 0.895 mean= 0.780
 gam= 0.306 g(H,U,f)=  0.164E-04 0.657E-06 0.120E-20 ort(H,U,f) =-0.116E-05 0.122E-05 0.285E-20
CGA:   6    -0.241116240110E+04   -0.24893E-04   -0.24890E-04   464   0.170E-04 0.613E-07
 gam= 0.306 trial= 0.786  step= 0.912 mean= 0.786
 gam= 0.240 g(H,U,f)=  0.402E-05 0.667E-07 0.755E-23 ort(H,U,f) =-0.315E-06 0.129E-06-0.125E-21
CGA:   7    -0.241116240886E+04   -0.77622E-05   -0.77739E-05   464   0.409E-05-0.186E-06
 gam= 0.240 trial= 0.792  step= 0.918 mean= 0.792
 final diagonalization
   7 F= -.24111624E+04 E0= -.24111624E+04  d E =-.878517E-02  mag=     2.0000
 curvature:  -0.36 expect dE=-0.248E-02 dE for cont linesearch -0.198E-06
 trial: gam= 0.23775 g(F)=  0.685E-02 g(S)=  0.000E+00 ort = 0.133E-03 (trialstep = 0.765E+00)
 search vector abs. value=  0.875E-02
 bond charge predicted
 wavefunctions rotated
 writing wavefunctions
       N       E                     dE             d eps       ncg     rms          ort
 gam= 0.000 g(H,U,f)=  0.149E+00 0.487E-02 0.119E-14 ort(H,U,f) = 0.000E+00 0.000E+00 0.000E+00
SDA:   1    -0.241110026295E+04    0.62138E-01    0.00000E+00   464   0.154E+00 0.000E+00
 gam= 0.000 trial= 0.798  step= 0.612 mean= 0.798
 gam= 0.300 g(H,U,f)=  0.416E-01 0.435E-02 0.103E-14 ort(H,U,f) = 0.447E-02-0.450E-02-0.906E-15
CGA:   2    -0.241114727720E+04   -0.47014E-01   -0.47002E-01   464   0.460E-01-0.226E-04
 gam= 0.300 trial= 0.789  step= 0.651 mean= 0.789
 gam= 0.095 g(H,U,f)=  0.423E-02 0.154E-03 0.974E-17 ort(H,U,f) = 0.250E-03-0.233E-03-0.104E-15
CGA:   3    -0.241116224233E+04   -0.14965E-01   -0.14969E-01   464   0.438E-02 0.169E-04
 gam= 0.095 trial= 0.782  step= 0.675 mean= 0.782
 gam= 0.195 g(H,U,f)=  0.807E-03 0.479E-04 0.279E-16 ort(H,U,f) = 0.777E-05-0.761E-05 0.858E-18
CGA:   4    -0.241116372152E+04   -0.14792E-02   -0.14792E-02   464   0.855E-03 0.165E-06
 gam= 0.195 trial= 0.777  step= 0.829 mean= 0.777
 gam= 0.289 g(H,U,f)=  0.233E-03 0.136E-04 0.225E-16 ort(H,U,f) =-0.146E-04 0.148E-04 0.506E-16
CGA:   5    -0.241116407586E+04   -0.35433E-03   -0.35433E-03   464   0.247E-03 0.198E-06
 gam= 0.289 trial= 0.779  step= 0.902 mean= 0.779
 gam= 0.310 g(H,U,f)=  0.742E-04 0.219E-05 0.157E-17 ort(H,U,f) =-0.981E-06 0.140E-05-0.138E-16
CGA:   6    -0.241116418723E+04   -0.11137E-03   -0.11134E-03   464   0.764E-04 0.423E-06
 gam= 0.310 trial= 0.785  step= 0.813 mean= 0.785
 gam= 0.229 g(H,U,f)=  0.168E-04 0.697E-06 0.492E-19 ort(H,U,f) =-0.827E-06 0.819E-06 0.177E-18
CGA:   7    -0.241116421835E+04   -0.31129E-04   -0.31129E-04   464   0.175E-04-0.846E-08
 gam= 0.229 trial= 0.787  step= 0.897 mean= 0.787
 gam= 0.301 g(H,U,f)=  0.510E-05 0.164E-06 0.346E-19 ort(H,U,f) = 0.148E-06-0.179E-06 0.813E-21
CGA:   8    -0.241116422620E+04   -0.78471E-05   -0.78487E-05   464   0.527E-05-0.303E-07
 gam= 0.301 trial= 0.792  step= 0.908 mean= 0.792
 final diagonalization
   8 F= -.24111642E+04 E0= -.24111642E+04  d E =-.181734E-02  mag=     2.0000
 trial-energy change:   -0.001817  1 .order   -0.001841   -0.005266    0.001585
 step:   0.5884(harm=  0.5884)  dis= 0.00197  next Energy= -2411.164433 (dE=-0.202E-02)
 bond charge predicted
 wavefunctions rotated
 writing wavefunctions
       N       E                     dE             d eps       ncg     rms          ort
 gam= 0.000 g(H,U,f)=  0.792E-02 0.253E-03 0.204E-18 ort(H,U,f) = 0.000E+00 0.000E+00 0.000E+00
SDA:   1    -0.241116099392E+04    0.32244E-02    0.00000E+00   464   0.817E-02 0.000E+00
 gam= 0.000 trial= 0.798  step= 0.614 mean= 0.798
 gam= 0.303 g(H,U,f)=  0.224E-02 0.234E-03 0.277E-18 ort(H,U,f) = 0.236E-03-0.235E-03-0.570E-19
CGA:   2    -0.241116350110E+04   -0.25072E-02   -0.25074E-02   464   0.247E-02 0.830E-06
 gam= 0.303 trial= 0.789  step= 0.649 mean= 0.789
 gam= 0.102 g(H,U,f)=  0.243E-03 0.855E-05 0.286E-20 ort(H,U,f) = 0.121E-04-0.132E-04-0.283E-19
CGA:   3    -0.241116430437E+04   -0.80326E-03   -0.80316E-03   464   0.251E-03-0.108E-05
 gam= 0.102 trial= 0.782  step= 0.688 mean= 0.782
 gam= 0.199 g(H,U,f)=  0.468E-04 0.326E-05 0.147E-19 ort(H,U,f) = 0.624E-06-0.426E-06-0.658E-20
CGA:   4    -0.241116439065E+04   -0.86280E-04   -0.86289E-04   464   0.501E-04 0.198E-06
 gam= 0.199 trial= 0.777  step= 0.856 mean= 0.777
 gam= 0.268 g(H,U,f)=  0.130E-04 0.495E-06 0.311E-20 ort(H,U,f) =-0.709E-06 0.650E-06 0.396E-20
CGA:   5    -0.241116441210E+04   -0.21448E-04   -0.21450E-04   464   0.134E-04-0.595E-07
 gam= 0.268 trial= 0.781  step= 0.966 mean= 0.781
 gam= 0.321 g(H,U,f)=  0.419E-05 0.135E-06 0.476E-21 ort(H,U,f) =-0.136E-06 0.147E-06-0.195E-21
CGA:   6    -0.241116441859E+04   -0.64899E-05   -0.64889E-05   464   0.432E-05 0.110E-07
 gam= 0.321 trial= 0.790  step= 0.880 mean= 0.790
 final diagonalization
   9 F= -.24111644E+04 E0= -.24111644E+04  d E =-.200972E-02  mag=     2.0000
 curvature:  -0.37 expect dE=-0.106E-02 dE for cont linesearch -0.408E-09
 trial: gam= 0.41737 g(F)=  0.282E-02 g(S)=  0.000E+00 ort = 0.309E-05 (trialstep = 0.730E+00)
 search vector abs. value=  0.435E-02
 bond charge predicted
 wavefunctions rotated
 writing wavefunctions
       N       E                     dE             d eps       ncg     rms          ort
 gam= 0.000 g(H,U,f)=  0.642E-01 0.150E-02 0.726E-15 ort(H,U,f) = 0.000E+00 0.000E+00 0.000E+00
SDA:   1    -0.241113620851E+04    0.28204E-01    0.00000E+00   464   0.657E-01 0.000E+00
 gam= 0.000 trial= 0.795  step= 0.667 mean= 0.795
 gam= 0.313 g(H,U,f)=  0.188E-01 0.172E-02 0.990E-15 ort(H,U,f) = 0.154E-02-0.154E-02-0.725E-15
CGA:   2    -0.241115812282E+04   -0.21914E-01   -0.21913E-01   464   0.205E-01-0.390E-05
 gam= 0.313 trial= 0.788  step= 0.606 mean= 0.788
 gam= 0.108 g(H,U,f)=  0.214E-02 0.836E-04 0.473E-16 ort(H,U,f) = 0.147E-03-0.145E-03-0.209E-15
CGA:   3    -0.241116435099E+04   -0.62282E-02   -0.62292E-02   464   0.222E-02 0.263E-05
 gam= 0.108 trial= 0.779  step= 0.693 mean= 0.779
 gam= 0.196 g(H,U,f)=  0.413E-03 0.229E-04 0.289E-16 ort(H,U,f) = 0.101E-04-0.108E-04-0.219E-16
CGA:   4    -0.241116511970E+04   -0.76871E-03   -0.76867E-03   464   0.435E-03-0.759E-06
 gam= 0.196 trial= 0.775  step= 0.869 mean= 0.775
 gam= 0.255 g(H,U,f)=  0.108E-03 0.336E-05 0.610E-19 ort(H,U,f) =-0.321E-05 0.344E-05-0.146E-17
CGA:   5    -0.241116530890E+04   -0.18920E-03   -0.18918E-03   464   0.111E-03 0.233E-06
 gam= 0.255 trial= 0.780  step= 1.005 mean= 0.780
 gam= 0.305 g(H,U,f)=  0.331E-04 0.798E-06 0.268E-17 ort(H,U,f) =-0.833E-06 0.690E-06 0.509E-17
CGA:   6    -0.241116536469E+04   -0.55793E-04   -0.55809E-04   464   0.339E-04-0.143E-06
 gam= 0.305 trial= 0.791  step= 0.799 mean= 0.791
 gam= 0.265 g(H,U,f)=  0.881E-05 0.181E-06 0.103E-18 ort(H,U,f) =-0.172E-06 0.882E-07-0.579E-18
CGA:   7    -0.241116537821E+04   -0.13520E-04   -0.13520E-04   464   0.899E-05-0.837E-07
 gam= 0.265 trial= 0.791  step= 0.853 mean= 0.791
 gam= 0.306 g(H,U,f)=  0.268E-05 0.719E-07 0.935E-19 ort(H,U,f) =-0.137E-07-0.638E-07-0.241E-19
CGA:   8    -0.241116538203E+04   -0.38242E-05   -0.38266E-05   464   0.275E-05-0.775E-07
 gam= 0.306 trial= 0.795  step= 0.901 mean= 0.795
 final diagonalization
  10 F= -.24111654E+04 E0= -.24111654E+04  d E =-.963448E-03  mag=     2.0000
 trial-energy change:   -0.000963  1 .order   -0.000984   -0.002062    0.000094
 step:   0.6983(harm=  0.6983)  dis= 0.00150  next Energy= -2411.165405 (dE=-0.986E-03)
 bond charge predicted
 wavefunctions rotated
 writing wavefunctions
       N       E                     dE             d eps       ncg     rms          ort
 gam= 0.000 g(H,U,f)=  0.126E-03 0.253E-05 0.121E-18 ort(H,U,f) = 0.000E+00 0.000E+00 0.000E+00
SDA:   1    -0.241116532839E+04    0.49822E-04    0.00000E+00   464   0.128E-03 0.000E+00
 gam= 0.000 trial= 0.800  step= 0.662 mean= 0.800
 gam= 0.305 g(H,U,f)=  0.355E-04 0.355E-05 0.298E-18 ort(H,U,f) = 0.291E-05-0.283E-05-0.182E-18
CGA:   2    -0.241116537081E+04   -0.42423E-04   -0.42429E-04   464   0.391E-04 0.852E-07
 gam= 0.305 trial= 0.793  step= 0.614 mean= 0.793
 gam= 0.109 g(H,U,f)=  0.410E-05 0.154E-06 0.724E-20 ort(H,U,f) = 0.190E-06-0.255E-06-0.382E-19
CGA:   3    -0.241116538283E+04   -0.12023E-04   -0.12017E-04   464   0.426E-05-0.654E-07
 gam= 0.109 trial= 0.784  step= 0.726 mean= 0.784
 gam= 0.218 g(H,U,f)=  0.867E-06 0.604E-07 0.499E-20 ort(H,U,f) = 0.171E-07-0.167E-07-0.238E-20
CGA:   4    -0.241116538438E+04   -0.15425E-05   -0.15425E-05   464   0.927E-06 0.444E-09
 gam= 0.218 trial= 0.781  step= 0.908 mean= 0.781
 final diagonalization
  11 F= -.24111654E+04 E0= -.24111654E+04  d E =-.965790E-03  mag=     2.0000
 curvature:  -0.54 expect dE=-0.677E-03 dE for cont linesearch -0.551E-07
 trial: gam= 0.43871 g(F)=  0.126E-02 g(S)=  0.000E+00 ort =-0.211E-04 (trialstep = 0.724E+00)
 search vector abs. value=  0.208E-02
 bond charge predicted
 wavefunctions rotated
 writing wavefunctions
       N       E                     dE             d eps       ncg     rms          ort
 gam= 0.000 g(H,U,f)=  0.251E-01 0.305E-03 0.184E-17 ort(H,U,f) = 0.000E+00 0.000E+00 0.000E+00
SDA:   1    -0.241115323893E+04    0.12144E-01    0.00000E+00   464   0.254E-01 0.000E+00
 gam= 0.000 trial= 0.787  step= 0.797 mean= 0.787
 gam= 0.300 g(H,U,f)=  0.707E-02 0.552E-03 0.146E-16 ort(H,U,f) = 0.391E-03-0.390E-03-0.807E-18
CGA:   2    -0.241116334699E+04   -0.10108E-01   -0.10108E-01   464   0.762E-02 0.442E-06
 gam= 0.300 trial= 0.788  step= 0.551 mean= 0.788
 gam= 0.106 g(H,U,f)=  0.785E-03 0.236E-04 0.597E-18 ort(H,U,f) = 0.505E-04-0.504E-04-0.152E-18
CGA:   3    -0.241116544368E+04   -0.20967E-02   -0.20968E-02   464   0.809E-03 0.815E-07
 gam= 0.106 trial= 0.776  step= 0.755 mean= 0.776
 gam= 0.252 g(H,U,f)=  0.193E-03 0.106E-04 0.422E-18 ort(H,U,f) = 0.537E-05-0.591E-05-0.254E-19
CGA:   4    -0.241116574905E+04   -0.30537E-03   -0.30537E-03   464   0.204E-03-0.548E-06
 gam= 0.252 trial= 0.775  step= 0.756 mean= 0.775
 gam= 0.284 g(H,U,f)=  0.554E-04 0.250E-05 0.509E-19 ort(H,U,f) = 0.106E-05-0.980E-06-0.194E-19
CGA:   5    -0.241116582605E+04   -0.76999E-04   -0.77000E-04   464   0.579E-04 0.762E-07
 gam= 0.284 trial= 0.774  step= 0.894 mean= 0.774
 gam= 0.288 g(H,U,f)=  0.162E-04 0.547E-06 0.941E-20 ort(H,U,f) =-0.137E-06-0.118E-07 0.148E-21
CGA:   6    -0.241116585193E+04   -0.25878E-04   -0.25887E-04   464   0.167E-04-0.148E-06
 gam= 0.288 trial= 0.780  step= 0.841 mean= 0.780
 gam= 0.248 g(H,U,f)=  0.406E-05 0.803E-07 0.145E-20 ort(H,U,f) =-0.411E-07-0.178E-07 0.110E-20
CGA:   7    -0.241116585893E+04   -0.69989E-05   -0.70007E-05   464   0.414E-05-0.589E-07
 gam= 0.248 trial= 0.783  step= 1.002 mean= 0.783
 final diagonalization
  12 F= -.24111659E+04 E0= -.24111659E+04  d E =-.474551E-03  mag=     2.0000
 trial-energy change:   -0.000475  1 .order   -0.000472   -0.000904   -0.000040
 step:   0.7575(harm=  0.7575)  dis= 0.00103  next Energy= -2411.165858 (dE=-0.473E-03)
 bond charge predicted
 wavefunctions rotated
 writing wavefunctions
       N       E                     dE             d eps       ncg     rms          ort
 gam= 0.000 g(H,U,f)=  0.553E-04 0.628E-06 0.343E-18 ort(H,U,f) = 0.000E+00 0.000E+00 0.000E+00
SDA:   1    -0.241116583462E+04    0.17308E-04    0.00000E+00   464   0.559E-04 0.000E+00
 gam= 0.000 trial= 0.794  step= 0.811 mean= 0.794
 gam= 0.303 g(H,U,f)=  0.157E-04 0.124E-05 0.493E-17 ort(H,U,f) = 0.914E-06-0.828E-06 0.130E-17
CGA:   2    -0.241116585730E+04   -0.22677E-04   -0.22676E-04   464   0.169E-04 0.852E-07
 gam= 0.303 trial= 0.795  step= 0.560 mean= 0.795
 gam= 0.119 g(H,U,f)=  0.195E-05 0.587E-07 0.884E-19 ort(H,U,f) = 0.109E-06-0.122E-06 0.697E-18
CGA:   3    -0.241116586205E+04   -0.47516E-05   -0.47501E-05   464   0.201E-05-0.134E-07
 gam= 0.119 trial= 0.783  step= 0.807 mean= 0.783
 final diagonalization
  13 F= -.24111659E+04 E0= -.24111659E+04  d E =-.477672E-03  mag=     2.0000
 curvature:  -0.63 expect dE=-0.326E-03 dE for cont linesearch -0.194E-07
 trial: gam= 0.40314 g(F)=  0.517E-03 g(S)=  0.000E+00 ort = 0.799E-05 (trialstep = 0.730E+00)
 search vector abs. value=  0.861E-03
 bond charge predicted
 wavefunctions rotated
 writing wavefunctions
       N       E                     dE             d eps       ncg     rms          ort
 gam= 0.000 g(H,U,f)=  0.117E-01 0.106E-03 0.149E-17 ort(H,U,f) = 0.000E+00 0.000E+00 0.000E+00
SDA:   1    -0.241116026374E+04    0.55936E-02    0.00000E+00   464   0.118E-01 0.000E+00
 gam= 0.000 trial= 0.784  step= 0.789 mean= 0.784
 gam= 0.245 g(H,U,f)=  0.276E-02 0.133E-03 0.442E-16 ort(H,U,f) = 0.112E-03-0.111E-03-0.308E-16
CGA:   2    -0.241116491768E+04   -0.46539E-02   -0.46539E-02   464   0.289E-02 0.861E-06
 gam= 0.245 trial= 0.785  step= 0.629 mean= 0.785
 gam= 0.113 g(H,U,f)=  0.319E-03 0.736E-05 0.158E-16 ort(H,U,f) = 0.999E-05-0.107E-04-0.849E-17
CGA:   3    -0.241116582776E+04   -0.91008E-03   -0.91002E-03   464   0.327E-03-0.671E-06
 gam= 0.113 trial= 0.777  step= 0.780 mean= 0.777
 gam= 0.229 g(H,U,f)=  0.708E-04 0.416E-05 0.133E-16 ort(H,U,f) = 0.120E-05-0.118E-05-0.161E-16
CGA:   4    -0.241116595512E+04   -0.12736E-03   -0.12736E-03   464   0.749E-04 0.147E-07
 gam= 0.229 trial= 0.777  step= 0.840 mean= 0.777
 gam= 0.324 g(H,U,f)=  0.230E-04 0.131E-05 0.129E-17 ort(H,U,f) = 0.488E-06-0.615E-06-0.729E-18
CGA:   5    -0.241116598661E+04   -0.31487E-04   -0.31491E-04   464   0.243E-04-0.127E-06
 gam= 0.324 trial= 0.780  step= 0.878 mean= 0.780
 gam= 0.362 g(H,U,f)=  0.832E-05 0.470E-06 0.828E-18 ort(H,U,f) = 0.274E-06-0.218E-06-0.109E-17
CGA:   6    -0.241116599726E+04   -0.10652E-04   -0.10649E-04   464   0.879E-05 0.557E-07
 gam= 0.362 trial= 0.785  step= 0.769 mean= 0.785
 gam= 0.286 g(H,U,f)=  0.245E-05 0.619E-07 0.535E-18 ort(H,U,f) = 0.580E-07-0.700E-07 0.254E-18
CGA:   7    -0.241116600065E+04   -0.33905E-05   -0.33904E-05   464   0.252E-05-0.121E-07
 gam= 0.286 trial= 0.784  step= 0.934 mean= 0.784
 final diagonalization
  14 F= -.24111660E+04 E0= -.24111660E+04  d E =-.138603E-03  mag=     2.0000
 trial-energy change:   -0.000139  1 .order   -0.000134   -0.000380    0.000111
 step:   0.5648(harm=  0.5648)  dis= 0.00045  next Energy= -2411.166009 (dE=-0.147E-03)
 bond charge predicted
 wavefunctions rotated
 writing wavefunctions
       N       E                     dE             d eps       ncg     rms          ort
 gam= 0.000 g(H,U,f)=  0.608E-03 0.562E-05 0.807E-19 ort(H,U,f) = 0.000E+00 0.000E+00 0.000E+00
SDA:   1    -0.241116571888E+04    0.27838E-03    0.00000E+00   464   0.614E-03 0.000E+00
 gam= 0.000 trial= 0.792  step= 0.784 mean= 0.792
 gam= 0.243 g(H,U,f)=  0.142E-03 0.666E-05 0.185E-18 ort(H,U,f) = 0.578E-05-0.573E-05-0.206E-19
CGA:   2    -0.241116595951E+04   -0.24063E-03   -0.24063E-03   464   0.149E-03 0.501E-07
 gam= 0.243 trial= 0.791  step= 0.621 mean= 0.791
 gam= 0.111 g(H,U,f)=  0.162E-04 0.417E-06 0.106E-19 ort(H,U,f) = 0.563E-06-0.566E-06-0.401E-20
CGA:   3    -0.241116600579E+04   -0.46279E-04   -0.46279E-04   464   0.166E-04-0.252E-08
 gam= 0.111 trial= 0.783  step= 0.767 mean= 0.783
 gam= 0.229 g(H,U,f)=  0.357E-05 0.232E-06 0.977E-20 ort(H,U,f) = 0.124E-07-0.850E-07-0.128E-22
CGA:   4    -0.241116601216E+04   -0.63734E-05   -0.63729E-05   464   0.380E-05-0.726E-07
 gam= 0.229 trial= 0.782  step= 0.791 mean= 0.782
 final diagonalization
  15 F= -.24111660E+04 E0= -.24111660E+04  d E =-.150112E-03  mag=     2.0000
 curvature:  -0.47 expect dE=-0.952E-04 dE for cont linesearch -0.426E-07
 trial: gam= 0.39577 g(F)=  0.204E-03 g(S)=  0.000E+00 ort = 0.886E-05 (trialstep = 0.697E+00)
 search vector abs. value=  0.346E-03
 reached required accuracy - stopping structural energy minimisation
 writing wavefunctions
 PROFILE, used timers:     650
