 vasp.5.4.4.18Apr17-6-g9f103f2a35 (build Jun 14 2024 12:30:39) gamma-only        
 executed on NVIDIA22.7_CrayMPICH date 2025.02.13  20:12:22
 running on  512 total cores
 distrk:  each k-point on  512 cores,    1 groups
 distr:  one band on NCORES_PER_BAND=  16 cores,   32 groups


--------------------------------------------------------------------------------------------------------


 INCAR:
 POTCAR:   PAW_PBE Si 05Jan2001                   
 POTCAR:   PAW_PBE C 08Apr2002                    
 POTCAR:   PAW_PBE Si 05Jan2001                   
   VRHFIN =Si: s2p2                                                             
   LEXCH  = PE                                                                  
   EATOM  =   103.0669 eV,    7.5752 Ry                                         
                                                                                
   TITEL  = PAW_PBE Si 05Jan2001                                                
   LULTRA =        F    use ultrasoft PP ?                                      
   IUNSCR =        1    unscreen: 0-lin 1-nonlin 2-no                           
   RPACOR =    1.500    partial core radius                                     
   POMASS =   28.085; ZVAL   =    4.000    mass and valenz                      
   RCORE  =    1.900    outmost cutoff radius                                   
   RWIGS  =    2.480; RWIGS  =    1.312    wigner-seitz radius (au A)           
   ENMAX  =  245.345; ENMIN  =  184.009 eV                                      
   ICORE  =        2    local potential                                         
   LCOR   =        T    correct aug charges                                     
   LPAW   =        T    paw PP                                                  
   EAUG   =  322.069                                                            
   DEXC   =    -.007                                                            
   RMAX   =    2.944    core radius for proj-oper                               
   RAUG   =    1.300    factor for augmentation sphere                          
   RDEP   =    1.993    radius for radial grids                                 
   QCUT   =   -4.246; QGAM   =    8.493    optimization parameters              
                                                                                
   Description                                                                  
     l     E      TYP  RCUT    TYP  RCUT                                        
     0   .000     23  1.900                                                     
     0   .000     23  1.900                                                     
     1   .000     23  1.900                                                     
     1   .000     23  1.900                                                     
     2   .000      7  1.900                                                     
  local pseudopotential read in
  partial core-charges read in
  atomic valenz-charges read in
  non local Contribution for L=            0  read in
    real space projection operators read in
  non local Contribution for L=            0  read in
    real space projection operators read in
  non local Contribution for L=            1  read in
    real space projection operators read in
  non local Contribution for L=            1  read in
    real space projection operators read in
    PAW grid and wavefunctions read in
 
   number of l-projection  operators is LMAX  =            4
   number of lm-projection operators is LMMAX =            8
 
 POTCAR:   PAW_PBE C 08Apr2002                    
   VRHFIN =C: s2p2                                                              
   LEXCH  = PE                                                                  
   EATOM  =   147.1560 eV,   10.8157 Ry                                         
                                                                                
   TITEL  = PAW_PBE C 08Apr2002                                                 
   LULTRA =        F    use ultrasoft PP ?                                      
   IUNSCR =        0    unscreen: 0-lin 1-nonlin 2-no                           
   RPACOR =     .000    partial core radius                                     
   POMASS =   12.011; ZVAL   =    4.000    mass and valenz                      
   RCORE  =    1.500    outmost cutoff radius                                   
   RWIGS  =    1.630; RWIGS  =     .863    wigner-seitz radius (au A)           
   ENMAX  =  400.000; ENMIN  =  300.000 eV                                      
   ICORE  =        2    local potential                                         
   LCOR   =        T    correct aug charges                                     
   LPAW   =        T    paw PP                                                  
   EAUG   =  644.873                                                            
   DEXC   =     .000                                                            
   RMAX   =    2.266    core radius for proj-oper                               
   RAUG   =    1.300    factor for augmentation sphere                          
   RDEP   =    1.501    radius for radial grids                                 
   RDEPT  =    1.300    core radius for aug-charge                              
   QCUT   =   -5.516; QGAM   =   11.032    optimization parameters              
                                                                                
   Description                                                                  
     l     E      TYP  RCUT    TYP  RCUT                                        
     0   .000     23  1.200                                                     
     0   .000     23  1.200                                                     
     1   .000     23  1.500                                                     
     1  2.500     23  1.500                                                     
     2   .000      7  1.500                                                     
  local pseudopotential read in
  atomic valenz-charges read in
  non local Contribution for L=            0  read in
    real space projection operators read in
  non local Contribution for L=            0  read in
    real space projection operators read in
  non local Contribution for L=            1  read in
    real space projection operators read in
  non local Contribution for L=            1  read in
    real space projection operators read in
    PAW grid and wavefunctions read in
 
   number of l-projection  operators is LMAX  =            4
   number of lm-projection operators is LMMAX =            8
 
 Optimization of the real space projectors (new method)

 maximal supplied QI-value         = 19.84
 optimisation between [QCUT,QGAM] = [ 10.12, 20.44] = [ 28.68,116.96] Ry 
 Optimized for a Real-space Cutoff    1.38 Angstroem

   l    n(q)    QCUT    max X(q) W(low)/X(q) W(high)/X(q)  e(spline) 
   0      8    10.119     8.708    0.16E-04    0.67E-05    0.60E-08
   0      8    10.119   106.241    0.56E-04    0.11E-03    0.54E-07
   1      8    10.119     5.901    0.16E-04    0.16E-05    0.22E-07
   1      8    10.119    73.241    0.22E-03    0.17E-03    0.18E-06
 Optimization of the real space projectors (new method)

 maximal supplied QI-value         = 25.13
 optimisation between [QCUT,QGAM] = [ 10.05, 20.36] = [ 28.30,116.06] Ry 
 Optimized for a Real-space Cutoff    1.38 Angstroem

   l    n(q)    QCUT    max X(q) W(low)/X(q) W(high)/X(q)  e(spline) 
   0      8    10.053     5.582    0.33E-04    0.15E-04    0.75E-07
   0      8    10.053    69.432    0.23E-03    0.38E-03    0.25E-06
   1      8    10.053     2.780    0.76E-04    0.11E-03    0.15E-06
   1      8    10.053     4.549    0.19E-03    0.19E-03    0.27E-06
 PAW_PBE Si 05Jan2001                   :
 energy of atom  1       EATOM= -103.0669
 kinetic energy error for atom=    0.0012 (will be added to EATOM!!)
 PAW_PBE C 08Apr2002                    :
 energy of atom  2       EATOM= -147.1560
 kinetic energy error for atom=    0.0288 (will be added to EATOM!!)
 
 
 POSCAR: generated by phonopy                    
  positions in direct lattice
  velocities in cartesian coordinates
 exchange correlation table for  LEXCH =        8
   RHO(1)=    0.500       N(1)  =     2000
   RHO(2)=  100.500       N(2)  =     4000
 


--------------------------------------------------------------------------------------------------------


 ion  position               nearest neighbor table
   1  0.000  0.000  0.000-  26 1.98 189 1.98 136 1.98  75 1.98  82 1.98 117 1.98
   2  0.205  0.205  0.039- 189 1.54 139 1.54  91 1.54  40 1.56
   3  0.207  0.207  0.373-  41 1.53  92 1.54 140 1.54 190 1.55
   4  0.209  0.209  0.707-  42 1.53 191 1.54 141 1.54  93 1.54
   5  0.209  0.541  0.042-  94 1.53 192 1.54 142 1.54  43 1.54
   6  0.208  0.541  0.375-  95 1.53  44 1.53 143 1.54 193 1.54
   7  0.209  0.542  0.708-  45 1.54  96 1.54 144 1.54 194 1.54
   8  0.211  0.871  0.042- 136 1.51 195 1.52  97 1.53  37 1.55
   9  0.208  0.874  0.375- 196 1.53  38 1.54  98 1.54 137 1.54
  10  0.211  0.875  0.706- 138 1.53  39 1.53 197 1.53  99 1.54
  11  0.541  0.209  0.042- 148 1.53 198 1.54 100 1.54  49 1.54
  12  0.541  0.208  0.375- 149 1.53  50 1.53 101 1.54 199 1.54
  13  0.542  0.209  0.708-  51 1.54 150 1.54 102 1.54 200 1.54
  14  0.542  0.542  0.042- 103 1.53 151 1.53 201 1.54  52 1.54
  15  0.541  0.541  0.375- 104 1.54 152 1.54  53 1.54 202 1.54
  16  0.542  0.542  0.708- 153 1.53 105 1.53  54 1.54 203 1.54
  17  0.542  0.875  0.042- 145 1.53 204 1.54 106 1.54  46 1.54
  18  0.541  0.875  0.376-  47 1.53 146 1.53 205 1.54 107 1.54
  19  0.543  0.875  0.709- 147 1.53  48 1.53 108 1.54 206 1.54
  20  0.871  0.211  0.042-  82 1.51 207 1.52 157 1.53  31 1.55
  21  0.874  0.208  0.375- 208 1.53  32 1.54 158 1.54  83 1.54
  22  0.875  0.211  0.706-  84 1.53  33 1.53 209 1.53 159 1.54
  23  0.875  0.542  0.042-  85 1.53 210 1.54 160 1.54  34 1.54
  24  0.875  0.541  0.376-  35 1.53  86 1.53 211 1.54 161 1.54
  25  0.875  0.543  0.709-  87 1.53  36 1.53 162 1.54 212 1.54
  26  0.874  0.874  0.052-  88 1.51 154 1.51 213 1.54   1 1.98
  27  0.875  0.875  0.376-  29 1.53 214 1.54 155 1.54  89 1.54
  28  0.877  0.877  0.711-  30 1.53  90 1.54 156 1.54 215 1.55
  29  0.958  0.958  0.292- 163 1.53  27 1.53 115 1.55  73 1.55
  30  0.959  0.959  0.625- 164 1.53  28 1.53 116 1.54  74 1.54
  31  0.958  0.292  0.958- 165 1.53  78 1.53  20 1.55 111 1.55
  32  0.957  0.291  0.291-  21 1.54  76 1.54 166 1.54 109 1.56
  33  0.958  0.293  0.624-  22 1.53  77 1.53 167 1.54 110 1.54
  34  0.959  0.625  0.959- 168 1.53  81 1.53  23 1.54 114 1.54
  35  0.958  0.624  0.293-  79 1.53  24 1.53 169 1.54 112 1.54
  36  0.959  0.626  0.626-  25 1.53  80 1.53 170 1.54 113 1.54
  37  0.292  0.958  0.958- 171 1.53 126 1.53   8 1.55  57 1.55
  38  0.291  0.957  0.291-   9 1.54 124 1.54 172 1.54  55 1.56
  39  0.293  0.958  0.624-  10 1.53 125 1.53 173 1.54  56 1.54
  40  0.291  0.291  0.957-  60 1.54 120 1.54 174 1.54   2 1.56
  41  0.291  0.291  0.291-   3 1.53  58 1.53 118 1.53 175 1.54
  42  0.292  0.292  0.624-   4 1.53  59 1.53 119 1.53 176 1.54
  43  0.293  0.624  0.958-  63 1.53 123 1.53 177 1.54   5 1.54
  44  0.292  0.624  0.292-  61 1.53   6 1.53 121 1.53 178 1.54
  45  0.292  0.625  0.625-   7 1.54  62 1.54 122 1.54 179 1.54
  46  0.625  0.959  0.959- 180 1.53 135 1.53  17 1.54  66 1.54
  47  0.624  0.958  0.293- 133 1.53  18 1.53 181 1.54  64 1.54
  48  0.626  0.959  0.626-  19 1.53 134 1.53 182 1.54  65 1.54
  49  0.624  0.293  0.958- 129 1.53  69 1.53 183 1.54  11 1.54
  50  0.624  0.292  0.292- 127 1.53  12 1.53  67 1.53 184 1.54
  51  0.625  0.292  0.625-  13 1.54 128 1.54  68 1.54 185 1.54
  52  0.626  0.626  0.959-  72 1.53 132 1.53 186 1.54  14 1.54
  53  0.625  0.625  0.292-  70 1.54 130 1.54  15 1.54 187 1.54
  54  0.626  0.626  0.626-  16 1.54 131 1.54  71 1.54 188 1.54
  55  0.205  0.039  0.205- 136 1.54  91 1.54 190 1.54  38 1.56
  56  0.209  0.042  0.541-  92 1.53 137 1.54 191 1.54  39 1.54
  57  0.211  0.042  0.871- 189 1.51 138 1.52  93 1.53  37 1.55
  58  0.207  0.373  0.207-  41 1.53  94 1.54 193 1.54 139 1.55
  59  0.208  0.375  0.541-  95 1.53  42 1.53 194 1.54 140 1.54
  60  0.208  0.375  0.874- 141 1.53  40 1.54  96 1.54 192 1.54
  61  0.209  0.707  0.209-  44 1.53 142 1.54  97 1.54 196 1.54
  62  0.209  0.708  0.542-  45 1.54  98 1.54 197 1.54 143 1.54
  63  0.211  0.706  0.875- 195 1.53  43 1.53 144 1.53  99 1.54
  64  0.541  0.042  0.209- 199 1.53 145 1.54 100 1.54  47 1.54
  65  0.542  0.042  0.542- 101 1.53 200 1.53 146 1.54  48 1.54
  66  0.542  0.042  0.875- 198 1.53 147 1.54 102 1.54  46 1.54
  67  0.541  0.375  0.208- 202 1.53  50 1.53 103 1.54 148 1.54
  68  0.541  0.375  0.541- 104 1.54 203 1.54  51 1.54 149 1.54
  69  0.541  0.376  0.875-  49 1.53 201 1.53 150 1.54 105 1.54
  70  0.542  0.708  0.209-  53 1.54 205 1.54 106 1.54 151 1.54
  71  0.542  0.708  0.542- 107 1.53 206 1.53  54 1.54 152 1.54
  72  0.543  0.709  0.875- 204 1.53  52 1.53 108 1.54 153 1.54
  73  0.871  0.042  0.211-  82 1.51 154 1.52 208 1.53  29 1.55
  74  0.875  0.042  0.542-  83 1.53 155 1.54 209 1.54  30 1.54
  75  0.874  0.052  0.874-  84 1.51 207 1.51 156 1.54   1 1.98
  76  0.874  0.375  0.208- 157 1.53  32 1.54 211 1.54  85 1.54
  77  0.875  0.376  0.541-  33 1.53  86 1.53 158 1.54 212 1.54
  78  0.875  0.376  0.875-  31 1.53 159 1.54  87 1.54 210 1.54
  79  0.875  0.706  0.211-  88 1.53  35 1.53 160 1.53 214 1.54
  80  0.875  0.709  0.543-  89 1.53  36 1.53 215 1.54 161 1.54
  81  0.877  0.711  0.877-  34 1.53  90 1.54 213 1.54 162 1.55
  82  0.948  0.126  0.126-  73 1.51  20 1.51 109 1.54   1 1.98
  83  0.958  0.125  0.458-  74 1.53 110 1.54  21 1.54 163 1.54
  84  0.958  0.129  0.789-  75 1.51 111 1.52  22 1.53 164 1.55
  85  0.958  0.458  0.125-  23 1.53 112 1.54  76 1.54 165 1.54
  86  0.958  0.458  0.458-  24 1.53  77 1.53 113 1.54 166 1.54
  87  0.958  0.459  0.791-  25 1.53 114 1.54  78 1.54 167 1.54
  88  0.958  0.789  0.129-  26 1.51 115 1.52  79 1.53 168 1.55
  89  0.958  0.791  0.459-  80 1.53 116 1.54  27 1.54 169 1.54
  90  0.961  0.795  0.795- 117 1.54  81 1.54  28 1.54 170 1.56
  91  0.289  0.123  0.123- 171 1.53  55 1.54   2 1.54 118 1.55
  92  0.291  0.125  0.457-  56 1.53 172 1.53   3 1.54 119 1.54
  93  0.294  0.125  0.789-  57 1.53 173 1.53 120 1.53   4 1.54
  94  0.291  0.457  0.125-   5 1.53 174 1.53  58 1.54 121 1.54
  95  0.292  0.458  0.458-   6 1.53  59 1.53 175 1.54 122 1.54
  96  0.292  0.458  0.791- 176 1.54   7 1.54  60 1.54 123 1.54
  97  0.294  0.789  0.125-   8 1.53 177 1.53 124 1.53  61 1.54
  98  0.292  0.791  0.458- 178 1.54  62 1.54   9 1.54 125 1.54
  99  0.293  0.791  0.791- 179 1.53 126 1.54  63 1.54  10 1.54
 100  0.624  0.125  0.125- 180 1.53 127 1.54  11 1.54  64 1.54
 101  0.624  0.125  0.459- 181 1.53  65 1.53 128 1.54  12 1.54
 102  0.625  0.126  0.792- 129 1.53 182 1.54  13 1.54  66 1.54
 103  0.624  0.459  0.125- 183 1.53  14 1.53 130 1.54  67 1.54
 104  0.625  0.459  0.459-  68 1.54  15 1.54 184 1.54 131 1.54
 105  0.625  0.459  0.792-  16 1.53 185 1.53  69 1.54 132 1.54
 106  0.625  0.792  0.126- 133 1.53 186 1.54  70 1.54  17 1.54
 107  0.625  0.792  0.459-  71 1.53 187 1.53  18 1.54 134 1.54
 108  0.627  0.793  0.793- 188 1.53  72 1.54  19 1.54 135 1.55
 109  0.039  0.205  0.205-  82 1.54 139 1.54 190 1.54  32 1.56
 110  0.042  0.209  0.541- 140 1.53  83 1.54 191 1.54  33 1.54
 111  0.042  0.211  0.871- 189 1.51  84 1.52 141 1.53  31 1.55
 112  0.042  0.541  0.209- 193 1.53  85 1.54 142 1.54  35 1.54
 113  0.042  0.542  0.542- 143 1.53 194 1.53  86 1.54  36 1.54
 114  0.042  0.542  0.875- 192 1.53  87 1.54 144 1.54  34 1.54
 115  0.042  0.871  0.211- 136 1.51  88 1.52 196 1.53  29 1.55
 116  0.042  0.875  0.542- 137 1.53  89 1.54 197 1.54  30 1.54
 117  0.052  0.874  0.874- 138 1.51 195 1.51  90 1.54   1 1.98
 118  0.373  0.207  0.207-  41 1.53 148 1.54 199 1.54  91 1.55
 119  0.375  0.208  0.541- 149 1.53  42 1.53 200 1.54  92 1.54
 120  0.375  0.208  0.874-  93 1.53  40 1.54 150 1.54 198 1.54
 121  0.375  0.541  0.208- 202 1.53  44 1.53 151 1.54  94 1.54
 122  0.375  0.541  0.541- 152 1.54 203 1.54  45 1.54  95 1.54
 123  0.376  0.541  0.875-  43 1.53 201 1.53  96 1.54 153 1.54
 124  0.375  0.874  0.208-  97 1.53  38 1.54 205 1.54 145 1.54
 125  0.376  0.875  0.541-  39 1.53 146 1.53  98 1.54 206 1.54
 126  0.376  0.875  0.875-  37 1.53  99 1.54 147 1.54 204 1.54
 127  0.707  0.209  0.209-  50 1.53 100 1.54 157 1.54 208 1.54
 128  0.708  0.209  0.542-  51 1.54 158 1.54 209 1.54 101 1.54
 129  0.706  0.211  0.875- 207 1.53  49 1.53 102 1.53 159 1.54
 130  0.708  0.542  0.209-  53 1.54 211 1.54 160 1.54 103 1.54
 131  0.708  0.542  0.542- 161 1.53 212 1.53  54 1.54 104 1.54
 132  0.709  0.543  0.875- 210 1.53  52 1.53 162 1.54 105 1.54
 133  0.706  0.875  0.211- 154 1.53  47 1.53 106 1.53 214 1.54
 134  0.709  0.875  0.543- 155 1.53  48 1.53 215 1.54 107 1.54
 135  0.711  0.877  0.877-  46 1.53 156 1.54 213 1.54 108 1.55
 136  0.126  0.948  0.126- 115 1.51   8 1.51  55 1.54   1 1.98
 137  0.125  0.958  0.458- 116 1.53  56 1.54   9 1.54 163 1.54
 138  0.129  0.958  0.789- 117 1.51  57 1.52  10 1.53 164 1.55
 139  0.123  0.289  0.123- 165 1.53 109 1.54   2 1.54  58 1.55
 140  0.125  0.291  0.457- 110 1.53 166 1.53   3 1.54  59 1.54
 141  0.125  0.294  0.789- 111 1.53 167 1.53  60 1.53   4 1.54
 142  0.125  0.624  0.125- 168 1.53  61 1.54 112 1.54   5 1.54
 143  0.125  0.624  0.459- 169 1.53 113 1.53  62 1.54   6 1.54
 144  0.126  0.625  0.792-  63 1.53 170 1.54   7 1.54 114 1.54
 145  0.458  0.958  0.125-  17 1.53  64 1.54 124 1.54 171 1.54
 146  0.458  0.958  0.458-  18 1.53 125 1.53  65 1.54 172 1.54
 147  0.459  0.958  0.791-  19 1.53  66 1.54 126 1.54 173 1.54
 148  0.457  0.291  0.125-  11 1.53 174 1.53 118 1.54  67 1.54
 149  0.458  0.292  0.458-  12 1.53 119 1.53 175 1.54  68 1.54
 150  0.458  0.292  0.791- 176 1.54  13 1.54 120 1.54  69 1.54
 151  0.459  0.624  0.125- 177 1.53  14 1.53  70 1.54 121 1.54
 152  0.459  0.625  0.459-  15 1.54 122 1.54 178 1.54  71 1.54
 153  0.459  0.625  0.792-  16 1.53 179 1.53 123 1.54  72 1.54
 154  0.789  0.958  0.129-  26 1.51  73 1.52 133 1.53 180 1.55
 155  0.791  0.958  0.459- 134 1.53  74 1.54  27 1.54 181 1.54
 156  0.795  0.961  0.795-  75 1.54 135 1.54  28 1.54 182 1.56
 157  0.789  0.294  0.125-  20 1.53 183 1.53  76 1.53 127 1.54
 158  0.791  0.292  0.458- 184 1.54 128 1.54  21 1.54  77 1.54
 159  0.791  0.293  0.791- 185 1.53  78 1.54 129 1.54  22 1.54
 160  0.792  0.625  0.126-  79 1.53 186 1.54 130 1.54  23 1.54
 161  0.792  0.625  0.459- 131 1.53 187 1.53  24 1.54  80 1.54
 162  0.793  0.627  0.793- 188 1.53 132 1.54  25 1.54  81 1.55
 163  0.041  0.041  0.375-  29 1.53 190 1.53  83 1.54 137 1.54
 164  0.042  0.042  0.708-  30 1.53 191 1.53 138 1.55  84 1.55
 165  0.041  0.375  0.041-  31 1.53 139 1.53 192 1.54  85 1.54
 166  0.041  0.374  0.374- 193 1.53 140 1.53  32 1.54  86 1.54
 167  0.042  0.376  0.707- 141 1.53 194 1.53  33 1.54  87 1.54
 168  0.042  0.708  0.042-  34 1.53 142 1.53 195 1.55  88 1.55
 169  0.042  0.707  0.376- 196 1.53 143 1.53  35 1.54  89 1.54
 170  0.043  0.709  0.709- 197 1.54 144 1.54  36 1.54  90 1.56
 171  0.375  0.041  0.041-  37 1.53  91 1.53 145 1.54 198 1.54
 172  0.374  0.041  0.374- 199 1.53  92 1.53  38 1.54 146 1.54
 173  0.376  0.042  0.707-  93 1.53 200 1.53  39 1.54 147 1.54
 174  0.374  0.374  0.041-  94 1.53 148 1.53  40 1.54 201 1.54
 175  0.374  0.374  0.374- 202 1.54 149 1.54  95 1.54  41 1.54
 176  0.375  0.375  0.708-  96 1.54 150 1.54 203 1.54  42 1.54
 177  0.376  0.707  0.042-  97 1.53 151 1.53  43 1.54 204 1.54
 178  0.375  0.708  0.375- 205 1.54  98 1.54 152 1.54  44 1.54
 179  0.376  0.708  0.708-  99 1.53 206 1.53 153 1.53  45 1.54
 180  0.708  0.042  0.042-  46 1.53 100 1.53 154 1.55 207 1.55
 181  0.707  0.042  0.376- 208 1.53 101 1.53  47 1.54 155 1.54
 182  0.709  0.043  0.709- 209 1.54 102 1.54  48 1.54 156 1.56
 183  0.707  0.376  0.042- 157 1.53 103 1.53  49 1.54 210 1.54
 184  0.708  0.375  0.375- 211 1.54 158 1.54 104 1.54  50 1.54
 185  0.708  0.376  0.708- 159 1.53 212 1.53 105 1.53  51 1.54
 186  0.709  0.709  0.043- 106 1.54 160 1.54  52 1.54 213 1.56
 187  0.708  0.708  0.376- 214 1.53 161 1.53 107 1.53  53 1.54
 188  0.709  0.709  0.709- 215 1.53 162 1.53 108 1.53  54 1.54
 189  0.126  0.126  0.948-  57 1.51 111 1.51   2 1.54   1 1.98
 190  0.123  0.123  0.289- 163 1.53 109 1.54  55 1.54   3 1.55
 191  0.125  0.125  0.624- 164 1.53   4 1.54 110 1.54  56 1.54
 192  0.125  0.458  0.958- 114 1.53   5 1.54  60 1.54 165 1.54
 193  0.125  0.457  0.291- 112 1.53 166 1.53  58 1.54   6 1.54
 194  0.125  0.459  0.624- 167 1.53 113 1.53   7 1.54  59 1.54
 195  0.129  0.789  0.958- 117 1.51   8 1.52  63 1.53 168 1.55
 196  0.125  0.789  0.294- 115 1.53 169 1.53   9 1.53  61 1.54
 197  0.126  0.792  0.625-  10 1.53 170 1.54  62 1.54 116 1.54
 198  0.458  0.125  0.958-  66 1.53  11 1.54 120 1.54 171 1.54
 199  0.457  0.125  0.291-  64 1.53 172 1.53 118 1.54  12 1.54
 200  0.459  0.125  0.624- 173 1.53  65 1.53  13 1.54 119 1.54
 201  0.458  0.458  0.958-  69 1.53 123 1.53  14 1.54 174 1.54
 202  0.458  0.458  0.292-  67 1.53 121 1.53 175 1.54  15 1.54
 203  0.459  0.459  0.625-  68 1.54 122 1.54 176 1.54  16 1.54
 204  0.459  0.791  0.958-  72 1.53  17 1.54 126 1.54 177 1.54
 205  0.458  0.791  0.292- 178 1.54  70 1.54 124 1.54  18 1.54
 206  0.459  0.792  0.625-  71 1.53 179 1.53 125 1.54  19 1.54
 207  0.789  0.129  0.958-  75 1.51  20 1.52 129 1.53 180 1.55
 208  0.789  0.125  0.294-  73 1.53 181 1.53  21 1.53 127 1.54
 209  0.792  0.126  0.625-  22 1.53 182 1.54 128 1.54  74 1.54
 210  0.791  0.459  0.958- 132 1.53  23 1.54  78 1.54 183 1.54
 211  0.791  0.458  0.292- 184 1.54 130 1.54  76 1.54  24 1.54
 212  0.792  0.459  0.625- 131 1.53 185 1.53  77 1.54  25 1.54
 213  0.795  0.795  0.961-  26 1.54  81 1.54 135 1.54 186 1.56
 214  0.791  0.791  0.293- 187 1.53  27 1.54 133 1.54  79 1.54
 215  0.793  0.793  0.627- 188 1.53 134 1.54  80 1.54  28 1.55
 

IMPORTANT INFORMATION: All symmetrisations will be switched off!
NOSYMM: (Re-)initialisation of all symmetry stuff for point group C_1.

 
 
 KPOINTS: pymatgen v1.1 with grid density = 2210 /

Automatic generation of k-mesh.
Space group operators:
 irot       det(A)        alpha          n_x          n_y          n_z        tau_x        tau_y        tau_z
    1     1.000000     0.000000     1.000000     0.000000     0.000000     0.000000     0.000000     0.000000
 
 Subroutine IBZKPT returns following result:
 ===========================================
 
 Found      1 irreducible k-points:
 
 Following reciprocal coordinates:
            Coordinates               Weight
  0.000000  0.000000  0.000000      1.000000
 
 Following cartesian coordinates:
            Coordinates               Weight
  0.000000  0.000000  0.000000      1.000000
 
 
 Subroutine IBZKPT_HF returns following result:
 ==============================================
 
 Found      1 k-points in 1st BZ
 the following      1 k-points will be used (e.g. in the exchange kernel)
 Following reciprocal coordinates:   # in IRBZ
  0.000000  0.000000  0.000000    1.00000000   1 t-inv F


--------------------------------------------------------------------------------------------------------




 Dimension of arrays:
   k-points           NKPTS =      1   k-points in BZ     NKDIM =      1   number of bands    NBANDS=    608
   number of dos      NEDOS =    301   number of ions     NIONS =    215
   non local maximal  LDIM  =      4   non local SUM 2l+1 LMDIM =      8
   total plane-waves  NPLWV = 343000
   max r-space proj   IRMAX =   3182   max aug-charges    IRDMAX=   9703
   dimension x,y,z NGX =    70 NGY =   70 NGZ =   70
   dimension x,y,z NGXF=   140 NGYF=  140 NGZF=  140
   support grid    NGXF=   140 NGYF=  140 NGZF=  140
   ions per type =               1 214
   NGX,Y,Z   is equivalent  to a cutoff of  10.93, 10.93, 10.93 a.u.
   NGXF,Y,Z  is equivalent  to a cutoff of  21.86, 21.86, 21.86 a.u.

 SYSTEM =  unknown system                          
 POSCAR =  generated by phonopy                    

 Startparameter for this run:
   NWRITE =      2    write-flag & timer
   PREC   = accura    normal or accurate (medium, high low for compatibility)
   ISTART =      1    job   : 0-new  1-cont  2-samecut
   ICHARG =      2    charge: 1-file 2-atom 10-const
   ISPIN  =      2    spin polarized calculation?
   LNONCOLLINEAR =      F non collinear calculations
   LSORBIT =      F    spin-orbit coupling
   INIWAV =      1    electr: 0-lowe 1-rand  2-diag
   LASPH  =      F    aspherical Exc in radial PAW
   METAGGA=      F    non-selfconsistent MetaGGA calc.

 Electronic Relaxation 1
   ENCUT  =  400.0 eV  29.40 Ry    5.42 a.u.  17.36 17.36 17.36*2*pi/ulx,y,z
   ENINI  =  400.0     initial cutoff
   ENAUG  =  644.9 eV  augmentation charge cutoff
   NELM   =    100;   NELMIN=  2; NELMDL=  0     # of ELM steps 
   EDIFF  = 0.1E-04   stopping-criterion for ELM
   LREAL  =      T    real-space projection
   NLSPLINE    = F    spline interpolate recip. space projectors
   LCOMPAT=      F    compatible to vasp.4.4
   GGA_COMPAT  = T    GGA compatible to vasp.4.4-vasp.4.6
   LMAXPAW     = -100 max onsite density
   LMAXMIX     =    2 max onsite mixed and CHGCAR
   VOSKOWN=      0    Vosko Wilk Nusair interpolation
   ROPT   =   -0.00025  -0.00025
 Ionic relaxation
   EDIFFG = -.1E-01   stopping-criterion for IOM
   NSW    =     99    number of steps for IOM
   NBLOCK =      1;   KBLOCK =     99    inner block; outer block 
   IBRION =      2    ionic relax: 0-MD 1-quasi-New 2-CG
   NFREE  =      1    steps in history (QN), initial steepest desc. (CG)
   ISIF   =      2    stress and relaxation
   IWAVPR =     11    prediction:  0-non 1-charg 2-wave 3-comb
   ISYM   =      0    0-nonsym 1-usesym 2-fastsym
   LCORR  =      T    Harris-Foulkes like correction to forces

   POTIM  = 0.5000    time-step for ionic-motion
   TEIN   =    0.0    initial temperature
   TEBEG  =    0.0;   TEEND  =   0.0 temperature during run
   SMASS  =  -3.00    Nose mass-parameter (am)
   estimated Nose-frequenzy (Omega)   =  0.10E-29 period in steps =****** mass=  -0.259E-26a.u.
   SCALEE = 1.0000    scale energy and forces
   NPACO  =    256;   APACO  = 16.0  distance and # of slots for P.C.
   PSTRESS=    0.0 pullay stress

  Mass of Ions in am
   POMASS =  28.09 12.01
  Ionic Valenz
   ZVAL   =   4.00  4.00
  Atomic Wigner-Seitz radii
   RWIGS  =  -1.00 -1.00
  virtual crystal weights 
   VCA    =   1.00  1.00
   NELECT =     860.0000    total number of electrons
   NUPDOWN=       2.0000    fix difference up-down

 DOS related values:
   EMIN   =  10.00;   EMAX   =-10.00  energy-range for DOS
   EFERMI =   0.00
   ISMEAR =    -2;   SIGMA  =   0.05  broadening in eV -4-tet -1-fermi 0-gaus

 Electronic relaxation 2 (details)
   IALGO  =     58    algorithm
   LDIAG  =      F    sub-space diagonalisation (order eigenvalues)
   LSUBROT=      F    optimize rotation matrix (better conditioning)
   TURBO    =      0    0=normal 1=particle mesh
   IRESTART =      0    0=no restart 2=restart with 2 vectors
   NREBOOT  =      0    no. of reboots
   NMIN     =      0    reboot dimension
   EREF     =   0.00    reference energy to select bands
   IMIX   =      4    mixing-type and parameters
     AMIX     =   0.40;   BMIX     =  1.00
     AMIX_MAG =   1.60;   BMIX_MAG =  1.00
     AMIN     =   0.10
     WC   =   100.;   INIMIX=   1;  MIXPRE=   1;  MAXMIX= -45

 Intra band minimization:
   WEIMIN = 0.0010     energy-eigenvalue tresh-hold
   EBREAK =  0.41E-08  absolut break condition
   DEPER  =   0.30     relativ break condition  

   TIME   =   0.40     timestep for ELM

  volume/ion in A,a.u.               =       5.61        37.87
  Fermi-wavevector in a.u.,A,eV,Ry     =   1.462352  2.763445 29.095711  2.138474
  Thomas-Fermi vector in A             =   2.578576
 
 Write flags
   LWAVE        =      T    write WAVECAR
   LDOWNSAMPLE  =      F    k-point downsampling of WAVECAR
   LCHARG       =      F    write CHGCAR
   LVTOT        =      F    write LOCPOT, total local potential
   LVHAR        =      F    write LOCPOT, Hartree potential only
   LELF         =      F    write electronic localiz. function (ELF)
   LORBIT       =     11    0 simple, 1 ext, 2 COOP (PROOUT), +10 PAW based schemes


 Dipole corrections
   LMONO  =      F    monopole corrections only (constant potential shift)
   LDIPOL =      F    correct potential (dipole corrections)
   IDIPOL =      0    1-x, 2-y, 3-z, 4-all directions 
   EPSILON=  1.0000000 bulk dielectric constant

 Exchange correlation treatment:
   GGA     =    --    GGA type
   LEXCH   =     8    internal setting for exchange type
   VOSKOWN=      0    Vosko Wilk Nusair interpolation
   EXXOEP  =     0    0=HF, 1=EXX-LHF (local Hartree Fock) 2=EXX OEP
   LHFCALC =     T    Hartree Fock is set to
   LSYMGRAD=     F    symmetrize gradient (conserves proper symmetry)
   PRECFOCK=fast      Normal, Fast or Accurate (Low or Medium for compatibility)
   LRHFCALC=     F    long range Hartree Fock
   LRSCOR  =     F    long range correlation only (use DFT for short range part)
   LTHOMAS =     F    Thomas Fermi screening in HF
   LMODELHF=     F    short range full HF, long range fraction AEXX
   ENCUT4O =  -1.0   cutoff for four orbital integrals eV
   LMAXFOCK=     4    L truncation for augmentation on plane wave grid
   LMAXFOCKAE=  -1    L truncation for all-electron charge restoration on plane wave grid
   NMAXFOCKAE=   1    number of basis functions for all-electron charge restoration
   LFOCKAEDFT=     F  apply the AE augmentation even for DFT
   NKREDX  =     1    reduce k-point grid by
   NKREDY  =     1    reduce k-point grid by
   NKREDZ  =     1    reduce k-point grid by
   SHIFTRED=     F    shift reduced grid of Gamma
   HFKIDENT=     F    idential grid for each k-point
   ODDONLY =     F    use only odd q-grid points
   EVENONLY=     F    use only even q-grid points
   HFALPHA =   -1.0000 decay constant for conv. correction
   MCALPHA =    0.0000 extent of test-charge in conv. correction in multipole expansion
   AEXX    =    0.2500 exact exchange contribution
   HFSCREEN=    0.2000 screening length (either q_TF or 0.3 A-1)
   HFSCREENC=   0.2000 screening length for correlation (either q_TF or 0.3 A-1)
   HFRCUT  =    0.0000 spherical cutoff for potential kernel
   ALDAX   =    0.7500 LDA exchange part
   AGGAX   =    0.7500 GGA exchange part
   ALDAC   =    1.0000 LDA correlation
   AGGAC   =    1.0000 GGA correlation
   ENCUTFOCK=  -1.0 apply spherical cutoff to Coloumb kernel
   NBANDSGWLOW=     1    first orbital included in HF term
   NBLOCK_FOCK=    64    blocking factor in FOCK_ACC
 Linear response parameters
   LEPSILON=     F    determine dielectric tensor
   LRPA    =     F    only Hartree local field effects (RPA)
   LNABLA  =     F    use nabla operator in PAW spheres
   LVEL    =     F    velocity operator in full k-point grid
   LINTERFAST=   F  fast interpolation
   KINTER  =     0    interpolate to denser k-point grid
   CSHIFT  =0.1000    complex shift for real part using Kramers Kronig
   OMEGAMAX=  -1.0    maximum frequency
   DEG_THRESHOLD= 0.2000000E-02 threshold for treating states as degnerate
   RTIME   =   -0.100 relaxation time in fs
  (WPLASMAI=    0.000 imaginary part of plasma frequency in eV, 0.658/RTIME)
   DFIELD  = 0.0000000 0.0000000 0.0000000 field for delta impulse in time
 
 Orbital magnetization related:
   ORBITALMAG=     F  switch on orbital magnetization
   LCHIMAG   =     F  perturbation theory with respect to B field
   DQ        =  0.001000  dq finite difference perturbation B field
   LLRAUG    =     F  two centre corrections for induced B field



--------------------------------------------------------------------------------------------------------


 conjugate gradient relaxation of ions
 charge density and potential will be updated during run
 spin polarized calculation
 Conjugate gradient for all bands (Kresse, et al. variant)
 preconditioned conjugated gradient                                        
 perform Loewdin sub-space diagonalisation
    ordering is kept fixed
    before iterative eigenvector-optimisation
 modified Broyden-mixing scheme, WC =      100.0
 initial mixing is a Kerker type mixing with AMIX =  0.4000 and BMIX =      1.0000
 Hartree-type preconditioning will be used
 using additional bands           178
 real space projection scheme for non local part
 use partial core corrections
 no Harris-corrections to forces 
 use gradient corrections 
 use of overlap-Matrix (Vanderbilt PP)
 partial occupancies read from INCAR or WAVECAR (fixed during run)


--------------------------------------------------------------------------------------------------------


  energy-cutoff  :      400.00
  volume of cell :     1206.61
      direct lattice vectors                 reciprocal lattice vectors
     7.527901926  4.346236203  6.146506184     0.066419569  0.038347356  0.054231351
    -7.527901926  4.346236203  6.146506184    -0.066419569  0.038347356  0.054231351
    -0.000000000 -8.692472407  6.146506184     0.000000000 -0.076694712  0.054231351

  length of vectors
    10.646061000 10.646061000 10.646061000     0.093931455  0.093931455  0.093931455


 
 old parameters found on file WAVECAR:
  energy-cutoff  :      400.00
  volume of cell :     1206.61
      direct lattice vectors                 reciprocal lattice vectors
     7.527901926  4.346236203  6.146506184     0.066419569  0.038347356  0.054231351
    -7.527901926  4.346236203  6.146506184    -0.066419569  0.038347356  0.054231351
    -0.000000000 -8.692472407  6.146506184     0.000000000 -0.076694712  0.054231351

  length of vectors

 
 k-points in units of 2pi/SCALE and weight: pymatgen v1.1 with grid density = 2210 /
   0.00000000  0.00000000  0.00000000       1.000
 
 k-points in reciprocal lattice and weights: pymatgen v1.1 with grid density = 2210 /
   0.00000000  0.00000000  0.00000000       1.000
 
 position of ions in fractional coordinates (direct lattice) 
   0.00000000  0.00000000  0.00000000
   0.20523706  0.20523706  0.03907120
   0.20719807  0.20719807  0.37323555
   0.20880015  0.20880015  0.70709406
   0.20851414  0.54088306  0.04153516
   0.20821001  0.54072312  0.37471960
   0.20878162  0.54151212  0.70783595
   0.21092373  0.87111898  0.04180582
   0.20836162  0.87414202  0.37523652
   0.21063151  0.87457206  0.70624268
   0.54088306  0.20851414  0.04153516
   0.54072312  0.20821001  0.37471960
   0.54151212  0.20878162  0.70783595
   0.54172676  0.54172676  0.04185156
   0.54143265  0.54143265  0.37513137
   0.54213628  0.54213628  0.70840308
   0.54187583  0.87504318  0.04197505
   0.54133188  0.87475338  0.37581574
   0.54282232  0.87537489  0.70891527
   0.87111898  0.21092373  0.04180582
   0.87414202  0.20836162  0.37523652
   0.87457206  0.21063151  0.70624268
   0.87504318  0.54187583  0.04197505
   0.87475338  0.54133188  0.37581574
   0.87537489  0.54282232  0.70891527
   0.87382210  0.87382210  0.05213185
   0.87468421  0.87468421  0.37585623
   0.87692300  0.87692300  0.71062135
   0.95768266  0.95768266  0.29230318
   0.95898502  0.95898502  0.62544500
   0.95768266  0.29230318  0.95768266
   0.95715206  0.29094355  0.29094355
   0.95828690  0.29296320  0.62374209
   0.95898502  0.62544500  0.95898502
   0.95828690  0.62374209  0.29296320
   0.95883322  0.62575745  0.62575745
   0.29230318  0.95768266  0.95768266
   0.29094355  0.95715206  0.29094355
   0.29296320  0.95828690  0.62374209
   0.29094355  0.29094355  0.95715206
   0.29060861  0.29060861  0.29060861
   0.29183415  0.29183415  0.62393941
   0.29296320  0.62374209  0.95828690
   0.29183415  0.62393941  0.29183415
   0.29221657  0.62490576  0.62490576
   0.62544500  0.95898502  0.95898502
   0.62374209  0.95828690  0.29296320
   0.62575745  0.95883322  0.62575745
   0.62374209  0.29296320  0.95828690
   0.62393941  0.29183415  0.29183415
   0.62490576  0.29221657  0.62490576
   0.62575745  0.62575745  0.95883322
   0.62490576  0.62490576  0.29221657
   0.62563682  0.62563682  0.62563682
   0.20523706  0.03907120  0.20523706
   0.20851414  0.04153516  0.54088306
   0.21092373  0.04180582  0.87111898
   0.20719807  0.37323555  0.20719807
   0.20821001  0.37471960  0.54072312
   0.20836162  0.37523652  0.87414202
   0.20880015  0.70709406  0.20880015
   0.20878162  0.70783595  0.54151212
   0.21063151  0.70624268  0.87457206
   0.54088306  0.04153516  0.20851414
   0.54172676  0.04185156  0.54172676
   0.54187583  0.04197505  0.87504318
   0.54072312  0.37471960  0.20821001
   0.54143265  0.37513137  0.54143265
   0.54133188  0.37581574  0.87475338
   0.54151212  0.70783595  0.20878162
   0.54213628  0.70840308  0.54213628
   0.54282232  0.70891527  0.87537489
   0.87111898  0.04180582  0.21092373
   0.87504318  0.04197505  0.54187583
   0.87382210  0.05213185  0.87382210
   0.87414202  0.37523652  0.20836162
   0.87475338  0.37581574  0.54133188
   0.87468421  0.37585623  0.87468421
   0.87457206  0.70624268  0.21063151
   0.87537489  0.70891527  0.54282232
   0.87692300  0.71062135  0.87692300
   0.94786815  0.12617790  0.12617790
   0.95802495  0.12495682  0.45812417
   0.95819418  0.12888102  0.78907627
   0.95802495  0.45812417  0.12495682
   0.95814844  0.45827324  0.45827324
   0.95846484  0.45911694  0.79148586
   0.95819418  0.78907627  0.12888102
   0.95846484  0.79148586  0.45911694
   0.96092880  0.79476294  0.79476294
   0.28937865  0.12307700  0.12307700
   0.29108473  0.12462511  0.45717768
   0.29375732  0.12542794  0.78936849
   0.29108473  0.45717768  0.12462511
   0.29159692  0.45786372  0.45786372
   0.29216405  0.45848788  0.79121838
   0.29375732  0.78936849  0.12542794
   0.29216405  0.79121838  0.45848788
   0.29290594  0.79119985  0.79119985
   0.62414377  0.12531579  0.12531579
   0.62418426  0.12524662  0.45866812
   0.62476348  0.12585798  0.79163838
   0.62418426  0.45866812  0.12524662
   0.62486863  0.45856735  0.45856735
   0.62528040  0.45927688  0.79178999
   0.62476348  0.79163838  0.12585798
   0.62528040  0.79178999  0.45927688
   0.62676445  0.79280193  0.79280193
   0.03907120  0.20523706  0.20523706
   0.04153516  0.20851414  0.54088306
   0.04180582  0.21092373  0.87111898
   0.04153516  0.54088306  0.20851414
   0.04185156  0.54172676  0.54172676
   0.04197505  0.54187583  0.87504318
   0.04180582  0.87111898  0.21092373
   0.04197505  0.87504318  0.54187583
   0.05213185  0.87382210  0.87382210
   0.37323555  0.20719807  0.20719807
   0.37471960  0.20821001  0.54072312
   0.37523652  0.20836162  0.87414202
   0.37471960  0.54072312  0.20821001
   0.37513137  0.54143265  0.54143265
   0.37581574  0.54133188  0.87475338
   0.37523652  0.87414202  0.20836162
   0.37581574  0.87475338  0.54133188
   0.37585623  0.87468421  0.87468421
   0.70709406  0.20880015  0.20880015
   0.70783595  0.20878162  0.54151212
   0.70624268  0.21063151  0.87457206
   0.70783595  0.54151212  0.20878162
   0.70840308  0.54213628  0.54213628
   0.70891527  0.54282232  0.87537489
   0.70624268  0.87457206  0.21063151
   0.70891527  0.87537489  0.54282232
   0.71062135  0.87692300  0.87692300
   0.12617790  0.94786815  0.12617790
   0.12495682  0.95802495  0.45812417
   0.12888102  0.95819418  0.78907627
   0.12307700  0.28937865  0.12307700
   0.12462511  0.29108473  0.45717768
   0.12542794  0.29375732  0.78936849
   0.12531579  0.62414377  0.12531579
   0.12524662  0.62418426  0.45866812
   0.12585798  0.62476348  0.79163838
   0.45812417  0.95802495  0.12495682
   0.45827324  0.95814844  0.45827324
   0.45911694  0.95846484  0.79148586
   0.45717768  0.29108473  0.12462511
   0.45786372  0.29159692  0.45786372
   0.45848788  0.29216405  0.79121838
   0.45866812  0.62418426  0.12524662
   0.45856735  0.62486863  0.45856735
   0.45927688  0.62528040  0.79178999
   0.78907627  0.95819418  0.12888102
   0.79148586  0.95846484  0.45911694
   0.79476294  0.96092880  0.79476294
   0.78936849  0.29375732  0.12542794
   0.79121838  0.29216405  0.45848788
   0.79119985  0.29290594  0.79119985
   0.79163838  0.62476348  0.12585798
   0.79178999  0.62528040  0.45927688
   0.79280193  0.62676445  0.79280193
   0.04101498  0.04101498  0.37455500
   0.04231734  0.04231734  0.70769682
   0.04101498  0.37455500  0.04101498
   0.04116678  0.37424255  0.37424255
   0.04171310  0.37625791  0.70703680
   0.04231734  0.70769682  0.04231734
   0.04171310  0.70703680  0.37625791
   0.04284794  0.70905645  0.70905645
   0.37455500  0.04101498  0.04101498
   0.37424255  0.04116678  0.37424255
   0.37625791  0.04171310  0.70703680
   0.37424255  0.37424255  0.04116678
   0.37436318  0.37436318  0.37436318
   0.37509424  0.37509424  0.70778343
   0.37625791  0.70703680  0.04171310
   0.37509424  0.70778343  0.37509424
   0.37606059  0.70816585  0.70816585
   0.70769682  0.04231734  0.04231734
   0.70703680  0.04171310  0.37625791
   0.70905645  0.04284794  0.70905645
   0.70703680  0.37625791  0.04171310
   0.70778343  0.37509424  0.37509424
   0.70816585  0.37606059  0.70816585
   0.70905645  0.70905645  0.04284794
   0.70816585  0.70816585  0.37606059
   0.70939139  0.70939139  0.70939139
   0.12617790  0.12617790  0.94786815
   0.12307700  0.12307700  0.28937865
   0.12531579  0.12531579  0.62414377
   0.12495682  0.45812417  0.95802495
   0.12462511  0.45717768  0.29108473
   0.12524662  0.45866812  0.62418426
   0.12888102  0.78907627  0.95819418
   0.12542794  0.78936849  0.29375732
   0.12585798  0.79163838  0.62476348
   0.45812417  0.12495682  0.95802495
   0.45717768  0.12462511  0.29108473
   0.45866812  0.12524662  0.62418426
   0.45827324  0.45827324  0.95814844
   0.45786372  0.45786372  0.29159692
   0.45856735  0.45856735  0.62486863
   0.45911694  0.79148586  0.95846484
   0.45848788  0.79121838  0.29216405
   0.45927688  0.79178999  0.62528040
   0.78907627  0.12888102  0.95819418
   0.78936849  0.12542794  0.29375732
   0.79163838  0.12585798  0.62476348
   0.79148586  0.45911694  0.95846484
   0.79121838  0.45848788  0.29216405
   0.79178999  0.45927688  0.62528040
   0.79476294  0.79476294  0.96092880
   0.79119985  0.79119985  0.29290594
   0.79280193  0.79280193  0.62676445
 
 position of ions in cartesian coordinates  (Angst):
   0.00000000  0.00000000  0.00000000
   0.00000000  1.44439215  2.76313303
  -0.00000000 -1.44327621  4.84118298
  -0.00000000 -4.33140607  6.91294077
  -2.50204060  2.89601400  4.86147065
  -2.50312609 -0.00219952  6.90653848
  -2.50476261 -2.89189064  8.96240311
  -4.96988509  4.33941725  6.90774189
  -5.01192955  1.44308336  8.96000892
  -4.99807939 -1.42244392 11.01113545
   2.50204060  2.89601400  4.86147065
   2.50312609 -0.00219952  6.90653848
   2.50476261 -2.89189064  8.96240311
   0.00000000  4.34515144  6.91669463
   0.00000000  1.44556927  8.96158555
  -0.00000000 -1.44526957 11.01869193
  -2.50805112  5.79339774  8.96710142
  -2.50996436  2.88787307 11.01393057
  -2.50342306  0.00159361 13.07431003
   4.96988509  4.33941725  6.90774189
   5.01192955  1.44308336  8.96000892
   4.99807939 -1.42244392 11.01113545
   2.50805112  5.79339774  8.96710142
   2.50996436  2.88787307 11.01393057
   2.50342306  0.00159361 13.07431003
   0.00000000  7.14251989 11.06233466
   0.00000000  4.33604845 13.06270648
   0.00000000  1.44557245 15.14786381
   0.00000000  5.78379280 13.56944815
   0.00000000  2.89928745 15.63311623
   5.00891149 -2.89189640 13.56944815
   5.01515238  2.89549957  9.45971368
   5.00849154  0.01636755 11.52465111
   2.51085658 -1.44964372 15.63311623
   2.51842049  4.32929713 11.52465111
   2.50736174  1.44762598 13.58591834
  -5.00891149 -2.89189640 13.56944815
  -5.01515238  2.89549957  9.45971368
  -5.00849154  0.01636755 11.52465111
  -0.00000000 -5.79099915  9.45971368
  -0.00000000 -0.00000000  5.35868286
  -0.00000000 -2.88681581  7.42256823
  -2.49007106 -4.34566469 11.52465111
  -2.50005583  1.44340791  7.42256823
  -2.50445159 -1.44594580  9.47808512
  -2.51085658 -1.44964372 15.63311623
  -2.51842049  4.32929713 11.52465111
  -2.50736174  1.44762598 13.58591834
   2.49007106 -4.34566469 11.52465111
   2.50005583  1.44340791  7.42256823
   2.50445159 -1.44594580  9.47808512
  -0.00000000 -2.89525196 13.58591834
   0.00000000  2.89189161  9.47808512
   0.00000000 -0.00000000 11.53644182
   1.25088030 -0.72219608  2.76313303
   1.25700139 -3.61483772  4.86147065
   1.27310303 -6.47375536  6.90774189
  -1.24991386  0.72163810  4.84118298
  -1.25346789 -2.16667102  6.90653848
  -1.25621792 -5.06200000  8.96000892
  -3.75110769  2.16570304  6.91294077
  -3.75683206 -0.72324273  8.96240311
  -3.73091226 -3.61724176 11.01113545
   3.75904200  0.71882372  4.86147065
   3.76301153 -2.17257572  6.91669463
   3.76320406 -5.06873485  8.96710142
   1.24965820  2.16887054  6.90653848
   1.25189971 -0.72278464  8.96158555
   1.24598926 -3.61762943 11.01393057
  -1.25206945  3.61513337  8.96240311
  -1.25164016  0.72263479 11.01869193
  -1.25033142 -2.16882477 13.07431003
   6.24298811  2.13433812  6.90774189
   6.27125518 -0.72466289  8.96710142
   6.18560368 -3.57125995 11.06233466
   3.75571163  3.61891663  8.96000892
   3.75595362  0.72975636 11.01393057
   3.75512811 -2.16802422 13.06270648
   1.26716712  5.03968568 11.01113545
   1.25309164  2.16723116 13.07431003
   1.25190247 -0.72278623 15.14786381
   6.18560368  3.57125995  7.37718389
   6.27125518  0.72466289  9.47241713
   6.24298811 -2.13433812 11.53177666
   3.76320406  5.06873485  9.47241713
   3.76301153  2.17257572 11.52282392
   3.75904200 -0.71882372 13.57804790
   1.27310303  6.47375536 11.53177666
   1.25700139  3.61483772 13.57804790
   1.25088030  0.72219608 15.67638552
   1.25190247  0.72278623  3.29165474
   1.25309164 -2.16723116  5.36520852
   1.26716712 -5.03968568  7.42838310
  -1.25033142  2.16882477  5.36520852
  -1.25164016 -0.72263479  7.42082662
  -1.25206945 -3.61513337  9.47711544
  -3.73091226  3.61724176  7.42838310
  -3.75683206  0.72324273  9.47711544
  -3.75110769 -2.16570304 11.52657779
   3.75512811  2.16802422  5.37681207
   3.75595362 -0.72975636  7.42558798
   3.75571163 -3.61891663  9.47950963
   1.24598926  3.61762943  7.42558798
   1.25189971  0.72278464  9.47793301
   1.24965820 -2.16887054 11.53298007
  -1.25621792  5.06200000  9.47950963
  -1.25346789  2.16667102 11.53298007
  -1.24991386 -0.72163810 13.59833557
  -1.25088030 -0.72219608  2.76313303
  -1.25700139 -3.61483772  4.86147065
  -1.27310303 -6.47375536  6.90774189
  -3.75904200  0.71882372  4.86147065
  -3.76301153 -2.17257572  6.91669463
  -3.76320406 -5.06873485  8.96710142
  -6.24298811  2.13433812  6.90774189
  -6.27125518 -0.72466289  8.96710142
  -6.18560368 -3.57125995 11.06233466
   1.24991386  0.72163810  4.84118298
   1.25346789 -2.16667102  6.90653848
   1.25621792 -5.06200000  8.96000892
  -1.24965820  2.16887054  6.90653848
  -1.25189971 -0.72278464  8.96158555
  -1.24598926 -3.61762943 11.01393057
  -3.75571163  3.61891663  8.96000892
  -3.75595362  0.72975636 11.01393057
  -3.75512811 -2.16802422 13.06270648
   3.75110769  2.16570304  6.91294077
   3.75683206 -0.72324273  8.96240311
   3.73091226 -3.61724176 11.01113545
   1.25206945  3.61513337  8.96240311
   1.25164016  0.72263479 11.01869193
   1.25033142 -2.16882477 13.07431003
  -1.26716712  5.03968568 11.01113545
  -1.25309164  2.16723116 13.07431003
  -1.25190247 -0.72278623 15.14786381
  -6.18560368  3.57125995  7.37718389
  -6.27125518  0.72466289  9.47241713
  -6.24298811 -2.13433812 11.53177666
  -1.25190247  0.72278623  3.29165474
  -1.25309164 -2.16723116  5.36520852
  -1.26716712 -5.03968568  7.42838310
  -3.75512811  2.16802422  5.37681207
  -3.75595362 -0.72975636  7.42558798
  -3.75571163 -3.61891663  9.47950963
  -3.76320406  5.06873485  9.47241713
  -3.76301153  2.17257572 11.52282392
  -3.75904200 -0.71882372 13.57804790
   1.25033142  2.16882477  5.36520852
   1.25164016 -0.72263479  7.42082662
   1.25206945 -3.61513337  9.47711544
  -1.24598926  3.61762943  7.42558798
  -1.25189971  0.72278464  9.47793301
  -1.24965820 -2.16887054 11.53298007
  -1.27310303  6.47375536 11.53177666
  -1.25700139  3.61483772 13.57804790
  -1.25088030  0.72219608 15.67638552
   3.73091226  3.61724176  7.42838310
   3.75683206  0.72324273  9.47711544
   3.75110769 -2.16570304 11.52657779
   1.25621792  5.06200000  9.47950963
   1.25346789  2.16667102 11.53298007
   1.24991386 -0.72163810 13.59833557
  -0.00000000 -2.89928745  2.80640232
  -0.00000000 -5.78379280  4.87007040
  -2.51085658  1.44964372  2.80640232
  -2.50736174 -1.44762598  4.85360021
  -2.51842049 -4.32929713  6.91486744
  -5.00891149  2.89189640  4.87007040
  -5.00849154 -0.01636755  6.91486744
  -5.01515238 -2.89549957  8.97980487
   2.51085658  1.44964372  2.80640232
   2.50736174 -1.44762598  4.85360021
   2.51842049 -4.32929713  6.91486744
   0.00000000  2.89525196  4.85360021
   0.00000000 -0.00000000  6.90307674
  -0.00000000 -2.89189161  8.96143343
  -2.49007106  4.34566469  6.91486744
  -2.50445159  1.44594580  8.96143343
  -2.50005583 -1.44340791 11.01695032
   5.00891149  2.89189640  4.87007040
   5.00849154 -0.01636755  6.91486744
   5.01515238 -2.89549957  8.97980487
   2.49007106  4.34566469  6.91486744
   2.50445159  1.44594580  8.96143343
   2.50005583 -1.44340791 11.01695032
   0.00000000  5.79099915  8.97980487
   0.00000000  2.88681581 11.01695032
   0.00000000 -0.00000000 13.08083569
  -0.00000000 -7.14251989  7.37718389
  -0.00000000 -1.44557245  3.29165474
  -0.00000000 -4.33604845  5.37681207
  -2.50805112 -5.79339774  9.47241713
  -2.50342306 -0.00159361  5.36520852
  -2.50996436 -2.88787307  7.42558798
  -4.96988509 -4.33941725 11.53177666
  -4.99807939  1.42244392  7.42838310
  -5.01192955 -1.44308336  9.47950963
   2.50805112 -5.79339774  9.47241713
   2.50342306 -0.00159361  5.36520852
   2.50996436 -2.88787307  7.42558798
  -0.00000000 -4.34515144 11.52282392
   0.00000000  1.44526957  7.42082662
   0.00000000 -1.44556927  9.47793301
  -2.50204060 -2.89601400 13.57804790
  -2.50476261  2.89189064  9.47711544
  -2.50312609  0.00219952 11.53298007
   4.96988509 -4.33941725 11.53177666
   4.99807939  1.42244392  7.42838310
   5.01192955 -1.44308336  9.47950963
   2.50204060 -2.89601400 13.57804790
   2.50476261  2.89189064  9.47711544
   2.50312609  0.00219952 11.53298007
  -0.00000000 -1.44439215 15.67638552
   0.00000000  4.33140607 11.52657779
   0.00000000  1.44327621 13.59833557
 


--------------------------------------------------------------------------------------------------------


 use parallel FFT for orbitals z direction half grid
 k-point  1 :   0.0000 0.0000 0.0000  plane waves:   10988

 maximum and minimum number of plane-waves per node :       696      679

 maximum number of plane-waves:     10988
 maximum index in each direction: 
   IXMAX=   17   IYMAX=   17   IZMAX=   17
   IXMIN=  -17   IYMIN=  -17   IZMIN=    0


 real space projection operators:
  total allocation   :      40841.81 KBytes
  max/ min on nodes  :       2928.50       2334.94


 parallel 3D FFT for wavefunctions:
    minimum data exchange during FFTs selected (reduces bandwidth)
 parallel 3D FFT for charge:
    minimum data exchange during FFTs selected (reduces bandwidth)


 FFT grid for exact exchange (Hartree Fock) 
  NGX = 36; NGY = 36; NGZ = 36

 use parallel FFT for orbitals z direction half grid
 
 Radii for the augmentation spheres in the non-local exchange
 for species   1 augmentation radius   1.055 (default was   0.989)
       energy cutoff for augmentation   1600.0
 for species   2 augmentation radius   0.795 (default was   0.699)
       energy cutoff for augmentation   1600.0

 real space projection operators:
  total allocation   :       1318.99 KBytes
  max/ min on nodes  :        110.25         69.47

 Maximum index for augmentation-charges in exchange            37
  SETUP_FOCK is finished

 total amount of memory used by VASP MPI-rank0    40004. kBytes
=======================================================================

   base      :      30000. kBytes
   nonlr-proj:       3647. kBytes
   fftplans  :       1350. kBytes
   grid      :       3557. kBytes
   one-center:         43. kBytes
   HF        :          9. kBytes
   wavefun   :       1398. kBytes
 
     INWAV:  cpu time    0.3466: real time    0.3503
 Broyden mixing: mesh for mixing (old mesh)
   NGX = 35   NGY = 35   NGZ = 35
  (NGX  =140   NGY  =140   NGZ  =140)
  gives a total of  42875 points

 initial charge density was supplied:
 charge density of overlapping atoms calculated
 number of electron     860.0000000 magnetization     129.0000000
 charge density for first step will be calculated from the start-wavefunctions


--------------------------------------------------------------------------------------------------------


 Maximum index for non-local projection operator           457
 Maximum index for augmentation-charges           529 (set IRDMAX)


--------------------------------------------------------------------------------------------------------


 initial charge from wavefunction
 First call to EWALD:  gamma=   0.166
 Maximum number of real-space cells 3x 3x 3
 Maximum number of reciprocal cells 3x 3x 3

    FEWALD:  cpu time    0.0105: real time    0.0105

 ----------------------------------------------------------------------------- 
|                                                                             |
|           W    W    AA    RRRRR   N    N  II  N    N   GGGG   !!!           |
|           W    W   A  A   R    R  NN   N  II  NN   N  G    G  !!!           |
|           W    W  A    A  R    R  N N  N  II  N N  N  G       !!!           |
|           W WW W  AAAAAA  RRRRR   N  N N  II  N  N N  G  GGG   !            |
|           WW  WW  A    A  R   R   N   NN  II  N   NN  G    G                |
|           W    W  A    A  R    R  N    N  II  N    N   GGGG   !!!           |
|                                                                             |
|      ALGO=A and IALGO=5X tend to fail with the tetrahedron method           |
|      (e.g. Bloechls method ISMEAR=-5 is not variational)                    |
|      please switch to IMSEAR=0-n, except for DOS calculations               |
|      For DOS calculations use IALGO=53 after preconverging with ISMEAR>=0   |
|          I HOPE YOU KNOW, WHAT YOU ARE  DOING                               |
|                                                                             |
 ----------------------------------------------------------------------------- 



--------------------------------------- Iteration      1(   1)  ---------------------------------------


    POTLOK:  cpu time    0.1527: real time    0.1529
    SETDIJ:  cpu time    0.0546: real time    0.0546
    TRIAL :  cpu time    9.4522: real time    9.4537
    CORREC:  cpu time    9.4324: real time    9.4335
    CHARGE:  cpu time    0.0278: real time    0.0278
    --------------------------------------------
      LOOP:  cpu time   19.1256: real time   19.1319

 eigenvalue-minimisations  :     0
 total energy-change (2. order) :-0.2409184E+04  (-0.7130699E-01)
 number of electron     859.9999991 magnetization       1.9999999
 augmentation part       19.9526839 magnetization       0.1375806

 Free energy of the ion-electron system (eV)
  ---------------------------------------------------
  alpha Z        PSCENC =      3112.96981489
  Ewald energy   TEWEN  =    -37448.55501798
  -Hartree energ DENC   =     -2882.32551240
  -exchange      EXHF   =      1983.68941882
  -V(xc)+E(xc)   XCENC  =      2425.41262146
  PAW double counting   =     14907.12618505   -15090.13728842
  entropy T*S    EENTRO =         0.00000000
  eigenvalues    EBANDS =      -474.52230631
  atomic energy  EATOM  =     31057.15824686
  ---------------------------------------------------
  free energy    TOTEN  =     -2409.18383804 eV

  energy without entropy =    -2409.18383804  energy(sigma->0) =    -2409.18383804
  exchange ACFDT corr.  =        -0.18115036  see jH, gK, PRB 81, 115126


--------------------------------------------------------------------------------------------------------




--------------------------------------- Iteration      1(   2)  ---------------------------------------


    POTLOK:  cpu time    0.1319: real time    0.1319
    SETDIJ:  cpu time    0.0434: real time    0.0434
    TRIAL :  cpu time    9.4762: real time    9.4772
    CORREC:  cpu time    9.3475: real time    9.3484
    CHARGE:  cpu time    0.0220: real time    0.0220
    --------------------------------------------
      LOOP:  cpu time   19.0235: real time   19.0257

 eigenvalue-minimisations  :     0
 total energy-change (2. order) :-0.7128468E-01  (-0.9906586E-02)
 number of electron     859.9999991 magnetization       1.9999999
 augmentation part       19.9513306 magnetization       0.1365485

 Free energy of the ion-electron system (eV)
  ---------------------------------------------------
  alpha Z        PSCENC =      3112.96981489
  Ewald energy   TEWEN  =    -37448.55501798
  -Hartree energ DENC   =     -2883.09609946
  -exchange      EXHF   =      1983.66476704
  -V(xc)+E(xc)   XCENC  =      2425.39202134
  PAW double counting   =     14906.47579311   -15089.48540553
  entropy T*S    EENTRO =         0.00000000
  eigenvalues    EBANDS =      -473.77924299
  atomic energy  EATOM  =     31057.15824686
  ---------------------------------------------------
  free energy    TOTEN  =     -2409.25512272 eV

  energy without entropy =    -2409.25512272  energy(sigma->0) =    -2409.25512272
  exchange ACFDT corr.  =        -0.11356456  see jH, gK, PRB 81, 115126


--------------------------------------------------------------------------------------------------------




--------------------------------------- Iteration      1(   3)  ---------------------------------------


    POTLOK:  cpu time    0.1292: real time    0.1292
    SETDIJ:  cpu time    0.0425: real time    0.0425
    TRIAL :  cpu time    9.4149: real time    9.4160
    CORREC:  cpu time    9.3592: real time    9.3604
    CHARGE:  cpu time    0.0219: real time    0.0219
    --------------------------------------------
      LOOP:  cpu time   18.9681: real time   18.9703

 eigenvalue-minimisations  :     0
 total energy-change (2. order) :-0.9942637E-02  (-0.1901553E-02)
 number of electron     859.9999991 magnetization       1.9999999
 augmentation part       19.9513657 magnetization       0.1359059

 Free energy of the ion-electron system (eV)
  ---------------------------------------------------
  alpha Z        PSCENC =      3112.96981489
  Ewald energy   TEWEN  =    -37448.55501798
  -Hartree energ DENC   =     -2882.96444381
  -exchange      EXHF   =      1983.66066527
  -V(xc)+E(xc)   XCENC  =      2425.38663305
  PAW double counting   =     14906.36701428   -15089.37636862
  entropy T*S    EENTRO =         0.00000000
  eigenvalues    EBANDS =      -473.91160930
  atomic energy  EATOM  =     31057.15824686
  ---------------------------------------------------
  free energy    TOTEN  =     -2409.26506536 eV

  energy without entropy =    -2409.26506536  energy(sigma->0) =    -2409.26506536
  exchange ACFDT corr.  =        -0.13599958  see jH, gK, PRB 81, 115126


--------------------------------------------------------------------------------------------------------




--------------------------------------- Iteration      1(   4)  ---------------------------------------


    POTLOK:  cpu time    0.1280: real time    0.1280
    SETDIJ:  cpu time    0.0431: real time    0.0431
    TRIAL :  cpu time    9.3865: real time    9.3875
    CORREC:  cpu time    9.3702: real time    9.3712
    CHARGE:  cpu time    0.0222: real time    0.0222
    --------------------------------------------
      LOOP:  cpu time   18.9503: real time   18.9523

 eigenvalue-minimisations  :     0
 total energy-change (2. order) :-0.1915428E-02  (-0.4236504E-03)
 number of electron     859.9999991 magnetization       1.9999999
 augmentation part       19.9515544 magnetization       0.1354915

 Free energy of the ion-electron system (eV)
  ---------------------------------------------------
  alpha Z        PSCENC =      3112.96981489
  Ewald energy   TEWEN  =    -37448.55501798
  -Hartree energ DENC   =     -2883.06614733
  -exchange      EXHF   =      1983.66420049
  -V(xc)+E(xc)   XCENC  =      2425.38971917
  PAW double counting   =     14906.45787087   -15089.46711462
  entropy T*S    EENTRO =         0.00000000
  eigenvalues    EBANDS =      -473.81855315
  atomic energy  EATOM  =     31057.15824686
  ---------------------------------------------------
  free energy    TOTEN  =     -2409.26698078 eV

  energy without entropy =    -2409.26698078  energy(sigma->0) =    -2409.26698078
  exchange ACFDT corr.  =        -0.13634045  see jH, gK, PRB 81, 115126


--------------------------------------------------------------------------------------------------------




--------------------------------------- Iteration      1(   5)  ---------------------------------------


    POTLOK:  cpu time    0.1283: real time    0.1283
    SETDIJ:  cpu time    0.0472: real time    0.0472
    TRIAL :  cpu time    9.3726: real time    9.3735
    CORREC:  cpu time    9.3453: real time    9.3463
    CHARGE:  cpu time    0.0219: real time    0.0219
    --------------------------------------------
      LOOP:  cpu time   18.9157: real time   18.9176

 eigenvalue-minimisations  :     0
 total energy-change (2. order) :-0.4295375E-03  (-0.1051960E-03)
 number of electron     859.9999991 magnetization       1.9999999
 augmentation part       19.9516360 magnetization       0.1353222

 Free energy of the ion-electron system (eV)
  ---------------------------------------------------
  alpha Z        PSCENC =      3112.96981489
  Ewald energy   TEWEN  =    -37448.55501798
  -Hartree energ DENC   =     -2883.07739167
  -exchange      EXHF   =      1983.66490135
  -V(xc)+E(xc)   XCENC  =      2425.39054618
  PAW double counting   =     14906.47730663   -15089.48654596
  entropy T*S    EENTRO =         0.00000000
  eigenvalues    EBANDS =      -473.80927062
  atomic energy  EATOM  =     31057.15824686
  ---------------------------------------------------
  free energy    TOTEN  =     -2409.26741032 eV

  energy without entropy =    -2409.26741032  energy(sigma->0) =    -2409.26741032
  exchange ACFDT corr.  =        -0.13651095  see jH, gK, PRB 81, 115126


--------------------------------------------------------------------------------------------------------




--------------------------------------- Iteration      1(   6)  ---------------------------------------


    POTLOK:  cpu time    0.1278: real time    0.1278
    SETDIJ:  cpu time    0.0432: real time    0.0432
    TRIAL :  cpu time    9.3963: real time    9.3972
    CORREC:  cpu time    9.3883: real time    9.3891
    CHARGE:  cpu time    0.0235: real time    0.0235
    --------------------------------------------
      LOOP:  cpu time   18.9795: real time   18.9812

 eigenvalue-minimisations  :     0
 total energy-change (2. order) :-0.1072410E-03  (-0.3088053E-04)
 number of electron     859.9999991 magnetization       1.9999999
 augmentation part       19.9516826 magnetization       0.1352812

 Free energy of the ion-electron system (eV)
  ---------------------------------------------------
  alpha Z        PSCENC =      3112.96981489
  Ewald energy   TEWEN  =    -37448.55501798
  -Hartree energ DENC   =     -2883.07542303
  -exchange      EXHF   =      1983.66468688
  -V(xc)+E(xc)   XCENC  =      2425.39049467
  PAW double counting   =     14906.47697453   -15089.48634756
  entropy T*S    EENTRO =         0.00000000
  eigenvalues    EBANDS =      -473.81094682
  atomic energy  EATOM  =     31057.15824686
  ---------------------------------------------------
  free energy    TOTEN  =     -2409.26751756 eV

  energy without entropy =    -2409.26751756  energy(sigma->0) =    -2409.26751756
  exchange ACFDT corr.  =        -0.13660130  see jH, gK, PRB 81, 115126


--------------------------------------------------------------------------------------------------------




--------------------------------------- Iteration      1(   7)  ---------------------------------------


    POTLOK:  cpu time    0.1318: real time    0.1318
    SETDIJ:  cpu time    0.0433: real time    0.0433
    TRIAL :  cpu time    9.5197: real time    9.5204
    CORREC:  cpu time    9.2796: real time    9.2808
    CHARGE:  cpu time    0.0246: real time    0.0246
    --------------------------------------------
      LOOP:  cpu time   18.9993: real time   19.0013

 eigenvalue-minimisations  :     0
 total energy-change (2. order) :-0.3178240E-04  (-0.9369125E-05)
 number of electron     859.9999991 magnetization       1.9999999
 augmentation part       19.9517094 magnetization       0.1352752

 Free energy of the ion-electron system (eV)
  ---------------------------------------------------
  alpha Z        PSCENC =      3112.96981489
  Ewald energy   TEWEN  =    -37448.55501798
  -Hartree energ DENC   =     -2883.08215148
  -exchange      EXHF   =      1983.66489264
  -V(xc)+E(xc)   XCENC  =      2425.39069716
  PAW double counting   =     14906.48661557   -15089.49608623
  entropy T*S    EENTRO =         0.00000000
  eigenvalues    EBANDS =      -473.80456079
  atomic energy  EATOM  =     31057.15824686
  ---------------------------------------------------
  free energy    TOTEN  =     -2409.26754935 eV

  energy without entropy =    -2409.26754935  energy(sigma->0) =    -2409.26754935
  exchange ACFDT corr.  =        -0.13666252  see jH, gK, PRB 81, 115126


--------------------------------------------------------------------------------------------------------




--------------------------------------- Iteration      1(   8)  ---------------------------------------


    POTLOK:  cpu time    0.1276: real time    0.1276
    SETDIJ:  cpu time    0.0432: real time    0.0432
    TRIAL :  cpu time    9.3881: real time    9.3891
    CORREC:  cpu time    9.3505: real time    9.3513
    CHARGE:  cpu time    0.0220: real time    0.0220
    --------------------------------------------
      LOOP:  cpu time   18.9317: real time   18.9335

 eigenvalue-minimisations  :     0
 total energy-change (2. order) :-0.9816151E-05  (-0.3109329E-05)
 number of electron     859.9999991 magnetization       1.9999999
 augmentation part       19.9517185 magnetization       0.1352716

 Free energy of the ion-electron system (eV)
  ---------------------------------------------------
  alpha Z        PSCENC =      3112.96981489
  Ewald energy   TEWEN  =    -37448.55501798
  -Hartree energ DENC   =     -2883.08317224
  -exchange      EXHF   =      1983.66505015
  -V(xc)+E(xc)   XCENC  =      2425.39079914
  PAW double counting   =     14906.49114668   -15089.50063596
  entropy T*S    EENTRO =         0.00000000
  eigenvalues    EBANDS =      -473.80379071
  atomic energy  EATOM  =     31057.15824686
  ---------------------------------------------------
  free energy    TOTEN  =     -2409.26755916 eV

  energy without entropy =    -2409.26755916  energy(sigma->0) =    -2409.26755916
  exchange ACFDT corr.  =        -0.13670469  see jH, gK, PRB 81, 115126


--------------------------------------------------------------------------------------------------------


  average scaling for gradient   1.0759


 average (electrostatic) potential at core
  the test charge radii are     0.9892  0.6991
  (the norm of the test charge is              1.0000)
       1 -74.6684       2 -41.3906       3 -41.6055       4 -41.5023       5 -41.5716
       6 -41.6230       7 -41.6173       8 -41.6565       9 -41.6114      10 -41.5147
      11 -41.6417      12 -41.6382      13 -41.6553      14 -41.6197      15 -41.6343
      16 -41.6230      17 -41.5961      18 -41.6117      19 -41.6458      20 -41.4765
      21 -41.6003      22 -41.5463      23 -41.5143      24 -41.5605      25 -41.5798
      26 -40.1977      27 -41.5503      28 -41.5677      29 -41.5156      30 -41.5481
      31 -41.4598      32 -41.6240      33 -41.5496      34 -41.4733      35 -41.4897
      36 -41.5916      37 -41.5865      38 -41.6798      39 -41.5849      40 -41.4804
      41 -41.5903      42 -41.5697      43 -41.6028      44 -41.6303      45 -41.6327
      46 -41.5622      47 -41.5881      48 -41.6527      49 -41.6664      50 -41.6127
      51 -41.6527      52 -41.5800      53 -41.6088      54 -41.6341      55 -41.6287
      56 -41.5933      57 -41.3866      58 -41.5734      59 -41.6016      60 -41.4791
      61 -41.6180      62 -41.6530      63 -41.5293      64 -41.6320      65 -41.6459
      66 -41.6174      67 -41.6299      68 -41.6445      69 -41.6318      70 -41.6224
      71 -41.6232      72 -41.6276      73 -41.3998      74 -41.5931      75 -41.0120
      76 -41.5784      77 -41.5988      78 -41.5565      79 -41.3445      80 -41.5911
      81 -41.4693      82 -40.4999      83 -41.5920      84 -41.4302      85 -41.5351
      86 -41.5917      87 -41.5441      88 -41.2417      89 -41.5757      90 -41.5292
      91 -41.5084      92 -41.6187      93 -41.4548      94 -41.5908      95 -41.6211
      96 -41.5787      97 -41.6740      98 -41.6474      99 -41.5884     100 -41.6435
     101 -41.6169     102 -41.6530     103 -41.5994     104 -41.6459     105 -41.6275
     106 -41.5417     107 -41.6152     108 -41.6131     109 -41.5302     110 -41.5753
     111 -41.2431     112 -41.5443     113 -41.5918     114 -41.5351     115 -41.4312
     116 -41.5917     117 -40.4973     118 -41.6129     119 -41.6146     120 -41.5426
     121 -41.6278     122 -41.6458     123 -41.5994     124 -41.6535     125 -41.6172
     126 -41.6421     127 -41.5887     128 -41.6471     129 -41.6723     130 -41.5783
     131 -41.6210     132 -41.5901     133 -41.4550     134 -41.6193     135 -41.5084
     136 -41.0133     137 -41.5932     138 -41.3999     139 -41.4710     140 -41.5909
     141 -41.3459     142 -41.5568     143 -41.5991     144 -41.5782     145 -41.6179
     146 -41.6459     147 -41.6314     148 -41.6279     149 -41.6227     150 -41.6223
     151 -41.6321     152 -41.6447     153 -41.6298     154 -41.3871     155 -41.5934
     156 -41.6282     157 -41.5297     158 -41.6529     159 -41.6177     160 -41.4779
     161 -41.6017     162 -41.5727     163 -41.5483     164 -41.5152     165 -41.4742
     166 -41.5917     167 -41.4896     168 -41.4586     169 -41.5497     170 -41.6236
     171 -41.5621     172 -41.6523     173 -41.5878     174 -41.5804     175 -41.6338
     176 -41.6087     177 -41.6665     178 -41.6531     179 -41.6126     180 -41.5861
     181 -41.5850     182 -41.6792     183 -41.6023     184 -41.6326     185 -41.6299
     186 -41.4803     187 -41.5699     188 -41.5905     189 -40.2016     190 -41.5682
     191 -41.5496     192 -41.5146     193 -41.5804     194 -41.5611     195 -41.4773
     196 -41.5476     197 -41.6002     198 -41.5953     199 -41.6454     200 -41.6110
     201 -41.6198     202 -41.6232     203 -41.6340     204 -41.6415     205 -41.6557
     206 -41.6384     207 -41.6546     208 -41.5144     209 -41.6108     210 -41.5712
     211 -41.6172     212 -41.6229     213 -41.3897     214 -41.5019     215 -41.6061
 
 
 
 E-fermi :   0.0200     XC(G=0): -10.8379     alpha+bet :-18.0036


 spin component 1

 k-point     1 :       0.0000    0.0000    0.0000
  band No.  band energies     occupation 
      1     -14.4063      1.00000
      2     -13.3090      1.00000
      3     -13.3681      1.00000
      4     -13.3292      1.00000
      5     -13.3202      1.00000
      6     -13.2361      1.00000
      7     -13.1466      1.00000
      8     -12.2606      1.00000
      9     -12.2075      1.00000
     10     -12.2641      1.00000
     11     -12.2130      1.00000
     12     -12.2413      1.00000
     13     -12.2226      1.00000
     14     -12.2096      1.00000
     15     -12.1569      1.00000
     16     -12.1807      1.00000
     17     -12.1683      1.00000
     18     -12.0543      1.00000
     19     -11.8697      1.00000
     20     -11.1388      1.00000
     21     -11.1325      1.00000
     22     -11.1355      1.00000
     23     -11.1143      1.00000
     24     -11.0955      1.00000
     25     -11.1086      1.00000
     26     -11.0274      1.00000
     27     -10.8393      1.00000
     28     -10.0405      1.00000
     29     -10.0257      1.00000
     30     -10.0055      1.00000
     31     -10.0035      1.00000
     32      -9.9518      1.00000
     33      -9.9117      1.00000
     34      -9.0700      1.00000
     35      -9.0601      1.00000
     36      -9.0161      1.00000
     37      -9.0398      1.00000
     38      -9.0094      1.00000
     39      -9.0334      1.00000
     40      -9.0258      1.00000
     41      -9.0057      1.00000
     42      -9.0081      1.00000
     43      -9.0126      1.00000
     44      -9.0011      1.00000
     45      -9.0115      1.00000
     46      -8.9769      1.00000
     47      -8.9914      1.00000
     48      -8.9581      1.00000
     49      -8.9872      1.00000
     50      -8.9713      1.00000
     51      -8.9364      1.00000
     52      -8.9244      1.00000
     53      -8.9185      1.00000
     54      -8.8844      1.00000
     55      -8.9264      1.00000
     56      -8.7174      1.00000
     57      -8.6395      1.00000
     58      -8.1913      1.00000
     59      -8.1857      1.00000
     60      -8.1903      1.00000
     61      -8.1744      1.00000
     62      -8.1532      1.00000
     63      -8.1492      1.00000
     64      -8.1524      1.00000
     65      -8.1454      1.00000
     66      -8.1275      1.00000
     67      -8.1455      1.00000
     68      -8.1457      1.00000
     69      -8.1275      1.00000
     70      -8.1377      1.00000
     71      -8.1267      1.00000
     72      -8.1137      1.00000
     73      -8.0525      1.00000
     74      -8.0870      1.00000
     75      -8.0562      1.00000
     76      -8.0486      1.00000
     77      -8.0077      1.00000
     78      -8.0325      1.00000
     79      -8.0362      1.00000
     80      -7.5068      1.00000
     81      -7.0161      1.00000
     82      -6.3199      1.00000
     83      -6.3043      1.00000
     84      -6.3235      1.00000
     85      -6.2875      1.00000
     86      -6.2627      1.00000
     87      -6.2870      1.00000
     88      -6.2579      1.00000
     89      -6.2684      1.00000
     90      -6.2181      1.00000
     91      -6.2056      1.00000
     92      -6.0245      1.00000
     93      -5.6258      1.00000
     94      -4.8680      1.00000
     95      -4.8640      1.00000
     96      -4.8328      1.00000
     97      -4.8224      1.00000
     98      -4.8170      1.00000
     99      -4.7641      1.00000
    100      -4.3391      1.00000
    101      -4.3373      1.00000
    102      -4.3116      1.00000
    103      -4.2944      1.00000
    104      -4.3180      1.00000
    105      -4.3046      1.00000
    106      -4.3035      1.00000
    107      -4.2882      1.00000
    108      -4.2769      1.00000
    109      -4.2738      1.00000
    110      -4.2762      1.00000
    111      -4.2619      1.00000
    112      -4.2610      1.00000
    113      -4.2355      1.00000
    114      -4.2143      1.00000
    115      -4.2286      1.00000
    116      -4.2075      1.00000
    117      -4.2216      1.00000
    118      -4.1659      1.00000
    119      -4.1747      1.00000
    120      -4.1559      1.00000
    121      -4.1540      1.00000
    122      -4.0906      1.00000
    123      -4.0669      1.00000
    124      -4.0216      1.00000
    125      -4.0151      1.00000
    126      -4.0154      1.00000
    127      -4.0062      1.00000
    128      -4.0062      1.00000
    129      -3.9934      1.00000
    130      -3.9828      1.00000
    131      -3.9675      1.00000
    132      -3.9886      1.00000
    133      -3.9699      1.00000
    134      -3.9734      1.00000
    135      -3.9809      1.00000
    136      -3.9806      1.00000
    137      -3.9690      1.00000
    138      -3.9589      1.00000
    139      -3.9543      1.00000
    140      -3.9609      1.00000
    141      -3.8780      1.00000
    142      -3.8673      1.00000
    143      -3.7345      1.00000
    144      -3.6548      1.00000
    145      -3.7021      1.00000
    146      -3.2645      1.00000
    147      -3.1319      1.00000
    148      -2.8604      1.00000
    149      -2.8329      1.00000
    150      -2.8393      1.00000
    151      -2.8143      1.00000
    152      -2.8151      1.00000
    153      -2.7970      1.00000
    154      -2.7758      1.00000
    155      -2.7722      1.00000
    156      -2.7279      1.00000
    157      -2.6915      1.00000
    158      -1.9826      1.00000
    159      -1.9245      1.00000
    160      -1.0660      1.00000
    161      -1.0684      1.00000
    162      -1.0519      1.00000
    163      -1.0544      1.00000
    164      -1.0459      1.00000
    165      -1.0459      1.00000
    166      -1.0242      1.00000
    167      -1.0103      1.00000
    168      -1.0147      1.00000
    169      -1.0085      1.00000
    170      -1.0145      1.00000
    171      -1.0107      1.00000
    172      -0.9949      1.00000
    173      -0.9333      1.00000
    174      -0.9362      1.00000
    175      -0.9278      1.00000
    176      -0.9014      1.00000
    177      -0.8881      1.00000
    178      -0.8346      1.00000
    179      -0.8051      1.00000
    180      -0.3827      1.00000
    181      -0.3629      1.00000
    182      -0.3600      1.00000
    183      -0.3823      1.00000
    184      -0.3744      1.00000
    185      -0.3717      1.00000
    186      -0.3467      1.00000
    187      -0.3405      1.00000
    188      -0.3480      1.00000
    189      -0.3523      1.00000
    190      -0.3312      1.00000
    191      -0.3456      1.00000
    192      -0.3265      1.00000
    193      -0.3260      1.00000
    194      -0.3232      1.00000
    195      -0.2779      1.00000
    196      -0.2995      1.00000
    197      -0.2685      1.00000
    198      -0.1762      1.00000
    199      -0.2164      1.00000
    200      -0.1568      1.00000
    201      -0.1799      1.00000
    202       0.3162      1.00000
    203       0.6287      1.00000
    204       0.6820      1.00000
    205       0.6843      1.00000
    206       0.6804      1.00000
    207       0.6804      1.00000
    208       0.6993      1.00000
    209       0.7103      1.00000
    210       0.6881      1.00000
    211       0.6985      1.00000
    212       0.6983      1.00000
    213       0.6952      1.00000
    214       0.7016      1.00000
    215       0.7241      1.00000
    216       0.7199      1.00000
    217       0.7357      1.00000
    218       0.7476      1.00000
    219       0.7802      1.00000
    220       0.7847      1.00000
    221       0.7694      1.00000
    222       0.8325      1.00000
    223       0.8513      1.00000
    224       0.8738      1.00000
    225       0.8846      1.00000
    226       0.9033      1.00000
    227       0.9435      1.00000
    228       1.2196      1.00000
    229       1.2277      1.00000
    230       1.2413      1.00000
    231       1.2539      1.00000
    232       1.2389      1.00000
    233       1.2634      1.00000
    234       1.2489      1.00000
    235       1.2646      1.00000
    236       1.2637      1.00000
    237       1.2538      1.00000
    238       1.2764      1.00000
    239       1.2738      1.00000
    240       1.2800      1.00000
    241       1.3166      1.00000
    242       1.3229      1.00000
    243       1.3323      1.00000
    244       1.3152      1.00000
    245       1.3292      1.00000
    246       1.3333      1.00000
    247       1.3265      1.00000
    248       1.3457      1.00000
    249       1.3488      1.00000
[...]
    4ORBIT:  cpu time    0.0000: real time    0.0000
 


 total charge     
 
# of ion       s       p       d       tot
------------------------------------------
    1        0.691   0.979   0.000   1.670
    2        0.838   1.740   0.000   2.578
    3        0.839   1.756   0.000   2.595
    4        0.841   1.762   0.000   2.603
    5        0.840   1.762   0.000   2.603
    6        0.840   1.762   0.000   2.602
    7        0.841   1.762   0.000   2.603
    8        0.845   1.762   0.000   2.607
    9        0.841   1.764   0.000   2.605
   10        0.844   1.771   0.000   2.614
   11        0.840   1.762   0.000   2.602
   12        0.840   1.762   0.000   2.602
   13        0.841   1.763   0.000   2.604
   14        0.841   1.763   0.000   2.604
   15        0.841   1.763   0.000   2.603
   16        0.841   1.765   0.000   2.606
   17        0.840   1.762   0.000   2.602
   18        0.842   1.768   0.000   2.610
   19        0.840   1.761   0.000   2.601
   20        0.845   1.766   0.000   2.611
   21        0.841   1.763   0.000   2.604
   22        0.844   1.770   0.000   2.613
   23        0.840   1.762   0.000   2.603
   24        0.842   1.768   0.000   2.610
   25        0.840   1.762   0.000   2.602
   26        0.849   1.774   0.000   2.623
   27        0.841   1.762   0.000   2.603
   28        0.839   1.752   0.000   2.592
   29        0.840   1.754   0.000   2.594
   30        0.841   1.764   0.000   2.605
   31        0.839   1.755   0.000   2.594
   32        0.841   1.746   0.000   2.587
   33        0.842   1.769   0.000   2.611
   34        0.841   1.764   0.000   2.605
   35        0.842   1.770   0.000   2.612
   36        0.840   1.761   0.000   2.601
   37        0.840   1.753   0.000   2.593
   38        0.840   1.748   0.000   2.588
   39        0.842   1.768   0.000   2.610
   40        0.840   1.752   0.000   2.592
   41        0.840   1.763   0.000   2.603
   42        0.841   1.766   0.000   2.607
   43        0.842   1.767   0.000   2.609
   44        0.841   1.765   0.000   2.606
   45        0.841   1.763   0.000   2.604
   46        0.841   1.764   0.000   2.605
   47        0.842   1.767   0.000   2.609
   48        0.840   1.759   0.000   2.600
   49        0.842   1.765   0.000   2.607
   50        0.841   1.766   0.000   2.607
   51        0.841   1.763   0.000   2.604
   52        0.840   1.760   0.000   2.600
   53        0.841   1.763   0.000   2.604
   54        0.840   1.760   0.000   2.601
   55        0.838   1.739   0.000   2.577
   56        0.840   1.762   0.000   2.603
   57        0.844   1.766   0.000   2.611
   58        0.839   1.755   0.000   2.595
   59        0.840   1.762   0.000   2.602
   60        0.841   1.765   0.000   2.606
   61        0.841   1.762   0.000   2.602
   62        0.841   1.762   0.000   2.603
   63        0.844   1.770   0.000   2.614
   64        0.840   1.762   0.000   2.602
   65        0.841   1.763   0.000   2.604
   66        0.840   1.762   0.000   2.602
   67        0.840   1.762   0.000   2.602
   68        0.841   1.763   0.000   2.603
   69        0.842   1.767   0.000   2.608
   70        0.841   1.763   0.000   2.604
   71        0.841   1.765   0.000   2.606
   72        0.840   1.761   0.000   2.601
   73        0.844   1.770   0.000   2.615
   74        0.840   1.762   0.000   2.602
   75        0.850   1.742   0.000   2.593
   76        0.841   1.764   0.000   2.605
   77        0.842   1.767   0.000   2.609
   78        0.840   1.762   0.000   2.602
   79        0.844   1.776   0.000   2.620
   80        0.840   1.762   0.000   2.602
   81        0.839   1.753   0.000   2.592
   82        0.851   1.767   0.000   2.618
   83        0.840   1.761   0.000   2.602
   84        0.845   1.772   0.000   2.616
   85        0.840   1.762   0.000   2.602
   86        0.841   1.764   0.000   2.605
   87        0.840   1.763   0.000   2.603
   88        0.845   1.773   0.000   2.618
   89        0.840   1.763   0.000   2.603
   90        0.838   1.739   0.000   2.577
   91        0.839   1.755   0.000   2.594
   92        0.840   1.762   0.000   2.602
   93        0.844   1.771   0.000   2.615
   94        0.840   1.762   0.000   2.602
   95        0.841   1.764   0.000   2.605
   96        0.841   1.764   0.000   2.605
   97        0.844   1.765   0.000   2.609
   98        0.841   1.763   0.000   2.604
   99        0.840   1.762   0.000   2.603
  100        0.841   1.760   0.000   2.601
  101        0.842   1.768   0.000   2.610
  102        0.841   1.764   0.000   2.605
  103        0.842   1.768   0.000   2.609
  104        0.841   1.762   0.000   2.603
  105        0.840   1.762   0.000   2.602
  106        0.841   1.764   0.000   2.605
  107        0.840   1.762   0.000   2.603
  108        0.839   1.755   0.000   2.594
  109        0.838   1.739   0.000   2.577
  110        0.840   1.763   0.000   2.603
  111        0.845   1.773   0.000   2.618
  112        0.840   1.763   0.000   2.603
  113        0.841   1.764   0.000   2.605
  114        0.840   1.762   0.000   2.602
  115        0.845   1.772   0.000   2.616
  116        0.840   1.761   0.000   2.602
  117        0.851   1.767   0.000   2.618
  118        0.839   1.755   0.000   2.594
  119        0.840   1.762   0.000   2.603
  120        0.841   1.764   0.000   2.605
  121        0.840   1.762   0.000   2.602
  122        0.841   1.762   0.000   2.603
  123        0.842   1.768   0.000   2.609
  124        0.841   1.764   0.000   2.605
  125        0.842   1.768   0.000   2.610
  126        0.841   1.760   0.000   2.601
  127        0.840   1.762   0.000   2.603
  128        0.841   1.763   0.000   2.604
  129        0.844   1.765   0.000   2.609
  130        0.841   1.764   0.000   2.605
  131        0.841   1.765   0.000   2.605
  132        0.840   1.762   0.000   2.602
  133        0.844   1.771   0.000   2.615
  134        0.840   1.762   0.000   2.602
  135        0.839   1.754   0.000   2.594
  136        0.850   1.742   0.000   2.593
  137        0.840   1.762   0.000   2.602
  138        0.844   1.770   0.000   2.615
  139        0.839   1.753   0.000   2.592
  140        0.840   1.762   0.000   2.602
  141        0.844   1.776   0.000   2.620
  142        0.840   1.762   0.000   2.602
  143        0.842   1.767   0.000   2.609
  144        0.841   1.764   0.000   2.605
  145        0.840   1.762   0.000   2.602
  146        0.841   1.763   0.000   2.604
  147        0.840   1.762   0.000   2.602
  148        0.840   1.761   0.000   2.601
  149        0.841   1.765   0.000   2.606
  150        0.841   1.763   0.000   2.604
  151        0.842   1.767   0.000   2.608
  152        0.841   1.763   0.000   2.603
  153        0.840   1.762   0.000   2.602
  154        0.845   1.766   0.000   2.611
  155        0.840   1.762   0.000   2.603
  156        0.838   1.739   0.000   2.577
  157        0.844   1.770   0.000   2.614
  158        0.841   1.762   0.000   2.603
  159        0.841   1.762   0.000   2.602
  160        0.841   1.765   0.000   2.606
  161        0.840   1.762   0.000   2.602
  162        0.839   1.755   0.000   2.595
  163        0.841   1.764   0.000   2.605
  164        0.840   1.754   0.000   2.594
  165        0.841   1.764   0.000   2.605
  166        0.840   1.761   0.000   2.601
  167        0.842   1.770   0.000   2.612
  168        0.839   1.755   0.000   2.594
  169        0.842   1.769   0.000   2.611
  170        0.841   1.746   0.000   2.587
  171        0.841   1.764   0.000   2.605
  172        0.840   1.759   0.000   2.600
  173        0.842   1.767   0.000   2.609
  174        0.840   1.760   0.000   2.600
  175        0.840   1.760   0.000   2.601
  176        0.841   1.763   0.000   2.604
  177        0.842   1.765   0.000   2.607
  178        0.841   1.763   0.000   2.604
  179        0.841   1.766   0.000   2.607
  180        0.840   1.753   0.000   2.593
  181        0.842   1.768   0.000   2.610
  182        0.840   1.748   0.000   2.588
  183        0.842   1.767   0.000   2.609
  184        0.841   1.763   0.000   2.604
  185        0.841   1.765   0.000   2.606
  186        0.840   1.752   0.000   2.592
  187        0.841   1.766   0.000   2.607
  188        0.840   1.763   0.000   2.603
  189        0.849   1.774   0.000   2.623
  190        0.839   1.752   0.000   2.592
  191        0.841   1.762   0.000   2.603
  192        0.840   1.762   0.000   2.603
  193        0.840   1.762   0.000   2.602
  194        0.842   1.768   0.000   2.610
  195        0.845   1.767   0.000   2.611
  196        0.844   1.770   0.000   2.613
  197        0.841   1.763   0.000   2.604
  198        0.840   1.762   0.000   2.602
  199        0.840   1.761   0.000   2.601
  200        0.842   1.768   0.000   2.610
  201        0.841   1.763   0.000   2.604
  202        0.841   1.765   0.000   2.606
  203        0.841   1.763   0.000   2.603
  204        0.840   1.762   0.000   2.602
  205        0.841   1.763   0.000   2.604
  206        0.840   1.762   0.000   2.602
  207        0.845   1.762   0.000   2.607
  208        0.844   1.771   0.000   2.615
  209        0.841   1.764   0.000   2.605
  210        0.840   1.762   0.000   2.603
  211        0.841   1.762   0.000   2.603
  212        0.840   1.762   0.000   2.602
  213        0.838   1.740   0.000   2.578
  214        0.841   1.762   0.000   2.603
  215        0.839   1.755   0.000   2.595
--------------------------------------------------
tot        180.709 378.084   0.000 558.793
 


 magnetization (x)
 
# of ion       s       p       d       tot
------------------------------------------
    1       -0.016   0.056   0.000   0.039
    2       -0.001   0.000   0.000  -0.001
    3       -0.000   0.000   0.000  -0.000
    4       -0.000   0.000   0.000  -0.000
    5       -0.000   0.001   0.000   0.000
    6        0.000   0.001   0.000   0.001
    7        0.000   0.005   0.000   0.005
    8        0.001   0.018   0.000   0.018
    9       -0.000   0.000   0.000  -0.000
   10        0.001   0.012   0.000   0.013
   11       -0.000   0.001   0.000   0.001
   12       -0.000   0.001   0.000   0.001
   13        0.000   0.003   0.000   0.004
   14        0.000   0.003   0.000   0.003
   15        0.000   0.001   0.000   0.001
   16        0.000   0.001   0.000   0.001
   17        0.000   0.001   0.000   0.001
   18        0.000   0.002   0.000   0.002
   19        0.000   0.002   0.000   0.002
   20        0.000   0.012   0.000   0.012
   21       -0.000   0.002   0.000   0.001
   22        0.002   0.014   0.000   0.015
   23        0.000   0.001   0.000   0.001
   24        0.000   0.002   0.000   0.002
   25       -0.000   0.000   0.000   0.000
   26        0.008   0.070   0.000   0.077
   27        0.000   0.002   0.000   0.002
   28        0.000   0.007   0.000   0.007
   29        0.000   0.003   0.000   0.003
   30       -0.000   0.001   0.000   0.000
   31        0.000   0.002   0.000   0.002
   32        0.001   0.016   0.000   0.017
   33        0.000   0.003   0.000   0.003
   34       -0.000   0.001   0.000   0.000
   35        0.000   0.002   0.000   0.002
   36        0.000   0.000   0.000   0.001
   37       -0.000   0.004   0.000   0.004
   38        0.001   0.014   0.000   0.015
   39        0.000   0.004   0.000   0.004
   40        0.001   0.008   0.000   0.009
   41       -0.000   0.001   0.000   0.001
   42        0.000   0.001   0.000   0.001
   43        0.000   0.005   0.000   0.005
   44        0.000   0.002   0.000   0.003
   45       -0.000   0.001   0.000   0.001
   46       -0.000   0.000   0.000   0.000
   47        0.000   0.005   0.000   0.005
   48        0.000   0.002   0.000   0.002
   49        0.000   0.007   0.000   0.007
   50        0.000   0.001   0.000   0.001
   51        0.000   0.001   0.000   0.002
   52        0.000   0.001   0.000   0.001
   53        0.000   0.001   0.000   0.001
   54        0.000   0.002   0.000   0.002
   55       -0.001   0.000   0.000  -0.001
   56       -0.000   0.001   0.000   0.001
   57        0.001   0.014   0.000   0.015
   58       -0.000   0.000   0.000  -0.000
   59        0.000   0.001   0.000   0.001
   60       -0.000  -0.000   0.000  -0.000
   61       -0.000   0.000   0.000   0.000
   62        0.000   0.005   0.000   0.005
   63        0.001   0.012   0.000   0.013
   64       -0.000   0.001   0.000   0.001
   65        0.000   0.003   0.000   0.003
   66        0.000   0.001   0.000   0.001
   67       -0.000   0.001   0.000   0.001
   68        0.000   0.001   0.000   0.001
   69        0.000   0.003   0.000   0.003
   70        0.000   0.003   0.000   0.003
   71        0.000   0.001   0.000   0.001
   72        0.000   0.002   0.000   0.002
   73        0.000   0.009   0.000   0.009
   74        0.000   0.001   0.000   0.001
   75        0.015   0.149   0.000   0.165
   76       -0.000   0.001   0.000   0.001
   77        0.000   0.003   0.000   0.003
   78        0.000   0.002   0.000   0.002
   79        0.001   0.006   0.000   0.006
   80        0.000   0.001   0.000   0.001
   81        0.000   0.006   0.000   0.006
   82        0.008   0.094   0.000   0.102
   83        0.000   0.002   0.000   0.002
   84       -0.001   0.006   0.000   0.005
   85        0.000   0.002   0.000   0.002
   86        0.000   0.002   0.000   0.002
   87       -0.000   0.000   0.000   0.000
   88       -0.001   0.005   0.000   0.004
   89       -0.000   0.000   0.000   0.000
   90       -0.001   0.004   0.000   0.003
   91        0.000   0.003   0.000   0.003
   92       -0.000   0.001   0.000   0.001
   93        0.001   0.010   0.000   0.012
   94        0.000   0.001   0.000   0.001
   95        0.000   0.001   0.000   0.001
   96        0.000   0.002   0.000   0.002
   97        0.002   0.018   0.000   0.020
   98        0.000   0.003   0.000   0.003
   99       -0.000  -0.001   0.000  -0.001
  100        0.000   0.004   0.000   0.004
  101        0.000   0.002   0.000   0.002
  102       -0.000   0.001   0.000   0.001
  103        0.000   0.002   0.000   0.002
  104        0.000   0.002   0.000   0.002
  105       -0.000   0.000   0.000   0.000
  106       -0.000   0.001   0.000   0.001
  107       -0.000   0.000   0.000   0.000
  108       -0.000   0.001   0.000   0.000
  109       -0.001   0.004   0.000   0.003
  110       -0.000   0.000   0.000   0.000
  111       -0.001   0.005   0.000   0.005
  112       -0.000   0.000   0.000   0.000
  113        0.000   0.002   0.000   0.003
  114        0.000   0.002   0.000   0.002
  115       -0.001   0.006   0.000   0.005
  116        0.000   0.002   0.000   0.002
  117        0.008   0.094   0.000   0.102
  118       -0.000   0.001   0.000   0.001
  119       -0.000   0.000   0.000   0.000
  120       -0.000   0.001   0.000   0.001
  121       -0.000   0.000   0.000   0.000
  122        0.000   0.002   0.000   0.002
  123        0.000   0.002   0.000   0.002
  124       -0.000   0.001   0.000   0.001
  125        0.000   0.002   0.000   0.002
  126        0.000   0.004   0.000   0.004
  127       -0.000  -0.001   0.000  -0.001
  128        0.000   0.003   0.000   0.003
  129        0.002   0.018   0.000   0.020
  130        0.000   0.002   0.000   0.002
  131        0.000   0.001   0.000   0.001
  132        0.000   0.001   0.000   0.001
  133        0.001   0.010   0.000   0.012
  134       -0.000   0.001   0.000   0.001
  135        0.000   0.003   0.000   0.003
  136        0.015   0.149   0.000   0.165
  137        0.000   0.001   0.000   0.001
  138        0.000   0.009   0.000   0.009
  139        0.000   0.006   0.000   0.006
  140        0.000   0.001   0.000   0.001
  141        0.001   0.006   0.000   0.006
  142        0.000   0.002   0.000   0.002
  143        0.000   0.003   0.000   0.003
  144       -0.000   0.001   0.000   0.001
  145        0.000   0.001   0.000   0.001
  146        0.000   0.003   0.000   0.003
  147       -0.000   0.001   0.000   0.001
  148        0.000   0.002   0.000   0.002
  149        0.000   0.001   0.000   0.001
  150        0.000   0.003   0.000   0.003
  151        0.000   0.003   0.000   0.003
  152        0.000   0.001   0.000   0.001
  153       -0.000   0.001   0.000   0.001
  154        0.001   0.014   0.000   0.015
  155       -0.000   0.001   0.000   0.001
  156       -0.001   0.000   0.000  -0.001
  157        0.001   0.012   0.000   0.013
  158        0.000   0.005   0.000   0.005
  159       -0.000   0.000   0.000   0.000
  160       -0.000  -0.000   0.000  -0.000
  161        0.000   0.001   0.000   0.001
  162       -0.000   0.000   0.000  -0.000
  163       -0.000   0.000   0.000   0.000
  164        0.000   0.003   0.000   0.003
  165       -0.000   0.001   0.000   0.000
  166        0.000   0.000   0.000   0.000
  167        0.000   0.002   0.000   0.002
  168        0.000   0.002   0.000   0.002
  169        0.000   0.003   0.000   0.003
  170        0.001   0.016   0.000   0.017
  171       -0.000   0.000   0.000   0.000
  172        0.000   0.002   0.000   0.002
  173        0.000   0.005   0.000   0.005
  174        0.000   0.001   0.000   0.001
  175        0.000   0.002   0.000   0.002
  176        0.000   0.001   0.000   0.001
  177        0.000   0.007   0.000   0.007
  178        0.000   0.002   0.000   0.002
  179        0.000   0.001   0.000   0.001
  180       -0.000   0.004   0.000   0.004
  181        0.000   0.004   0.000   0.004
  182        0.001   0.014   0.000   0.015
  183        0.000   0.005   0.000   0.005
  184       -0.000   0.001   0.000   0.001
  185        0.000   0.002   0.000   0.002
  186        0.001   0.008   0.000   0.009
  187        0.000   0.001   0.000   0.001
  188       -0.000   0.001   0.000   0.001
  189        0.008   0.069   0.000   0.077
  190        0.000   0.007   0.000   0.007
  191        0.000   0.002   0.000   0.002
  192        0.000   0.001   0.000   0.001
  193       -0.000   0.000   0.000   0.000
  194        0.000   0.002   0.000   0.002
  195        0.000   0.012   0.000   0.012
  196        0.002   0.014   0.000   0.015
  197       -0.000   0.002   0.000   0.001
  198        0.000   0.001   0.000   0.001
  199        0.000   0.002   0.000   0.002
  200        0.000   0.002   0.000   0.002
  201        0.000   0.003   0.000   0.003
  202        0.000   0.001   0.000   0.001
  203        0.000   0.001   0.000   0.001
  204       -0.000   0.001   0.000   0.001
  205        0.000   0.003   0.000   0.004
  206       -0.000   0.001   0.000   0.001
  207        0.001   0.018   0.000   0.018
  208        0.001   0.012   0.000   0.013
  209       -0.000   0.000   0.000  -0.000
  210       -0.000   0.000   0.000   0.000
  211        0.000   0.005   0.000   0.005
  212        0.000   0.001   0.000   0.001
  213       -0.001   0.000   0.000  -0.001
  214       -0.000   0.000   0.000  -0.000
  215       -0.000   0.000   0.000  -0.000
--------------------------------------------------
tot          0.070   1.338   0.000   1.407
 

 total amount of memory used by VASP MPI-rank0    40004. kBytes
=======================================================================

   base      :      30000. kBytes
   nonlr-proj:       3647. kBytes
   fftplans  :       1350. kBytes
   grid      :       3557. kBytes
   one-center:         43. kBytes
   HF        :          9. kBytes
   wavefun   :       1398. kBytes
 
  
  
 General timing and accounting informations for this job:
 ========================================================
  
                  Total CPU time used (sec):     1590.921
                            User time (sec):     1586.065
                          System time (sec):        4.856
                         Elapsed time (sec):     1592.201
  
                   Maximum memory used (kb):      415656.
                   Average memory used (kb):           0.
  
                          Minor page faults:        70466
                          Major page faults:          382
                 Voluntary context switches:          798
