 running on  512 total cores
 distrk:  each k-point on  512 cores,    1 groups
 distr:  one band on   16 cores,   32 groups
 using from now: INCAR     
 vasp.5.4.4.18Apr17-6-g9f103f2a35 (build Dec 19 2024 10:44:08) gamma-only        
 POSCAR found type information on POSCAR  Si C 
 POSCAR found :  2 types and     215 ions
 scaLAPACK will be used
 LDA part: xc-table for Pade appr. of Perdew

 ----------------------------------------------------------------------------- 
|                                                                             |
|           W    W    AA    RRRRR   N    N  II  N    N   GGGG   !!!           |
|           W    W   A  A   R    R  NN   N  II  NN   N  G    G  !!!           |
|           W    W  A    A  R    R  N N  N  II  N N  N  G       !!!           |
|           W WW W  AAAAAA  RRRRR   N  N N  II  N  N N  G  GGG   !            |
|           WW  WW  A    A  R   R   N   NN  II  N   NN  G    G                |
|           W    W  A    A  R    R  N    N  II  N    N   GGGG   !!!           |
|                                                                             |
|      The number of bands has been changed from the values supplied          |
|      in the INCAR file. This is a result of running the parallel version.   |
|      The orbitals not found in the WAVECAR file will be initialized with    |
|      random numbers, which is usually adequate. For correlated              |
|      calculations, however, you should redo the groundstate calculation.    |
|      I found NBANDS    =      450  now  NBANDS  =     480                   |
|                                                                             |
 ----------------------------------------------------------------------------- 

 found WAVECAR, reading the header
  number of bands has changed, file:   464 present:   480
  trying to continue reading WAVECAR, but it might fail
 POSCAR, INCAR and KPOINTS ok, starting setup
 FFT: planning ...
 reading WAVECAR
 random initialization beyond band           465
 the WAVECAR file was read successfully
 initial charge from wavefunction
 entering main loop

 ----------------------------------------------------------------------------- 
|                                                                             |
|           W    W    AA    RRRRR   N    N  II  N    N   GGGG   !!!           |
|           W    W   A  A   R    R  NN   N  II  NN   N  G    G  !!!           |
|           W    W  A    A  R    R  N N  N  II  N N  N  G       !!!           |
|           W WW W  AAAAAA  RRRRR   N  N N  II  N  N N  G  GGG   !            |
|           WW  WW  A    A  R   R   N   NN  II  N   NN  G    G                |
|           W    W  A    A  R    R  N    N  II  N    N   GGGG   !!!           |
|                                                                             |
|      ALGO=A and IALGO=5X tend to fail with the tetrahedron method           |
|      (e.g. Bloechls method ISMEAR=-5 is not variational)                    |
|      please switch to IMSEAR=0-n, except for DOS calculations               |
|      For DOS calculations use IALGO=53 after preconverging with ISMEAR>=0   |
|          I HOPE YOU KNOW, WHAT YOU ARE  DOING                               |
|                                                                             |
 ----------------------------------------------------------------------------- 

       N       E                     dE             d eps       ncg     rms          ort
 gam= 0.000 g(H,U,f)=  0.590E+01 0.270E+00 0.000E+00 ort(H,U,f) = 0.000E+00 0.000E+00 0.000E+00
SDA:   1    -0.240608709656E+04   -0.24061E+04    0.00000E+00   480   0.617E+01 0.000E+00
 gam= 0.000 trial= 0.400  step= 0.844 mean= 0.400
 gam= 0.281 g(H,U,f)=  0.139E+01 0.341E+00 0.000E+00 ort(H,U,f) =-0.164E+00-0.186E+00 0.000E+00
CGA:   2    -0.240865174941E+04   -0.25647E+01   -0.26018E+01   480   0.173E+01-0.349E+00
 gam= 0.281 trial= 0.422  step= 0.569 mean= 0.422
 gam= 0.200 g(H,U,f)=  0.304E+00 0.428E-01 0.000E+00 ort(H,U,f) = 0.117E-01-0.110E-01 0.000E+00
CGA:   3    -0.240912084583E+04   -0.46910E+00   -0.46467E+00   480   0.346E+00 0.637E-03
 gam= 0.200 trial= 0.430  step= 0.963 mean= 0.430
 gam= 0.467 g(H,U,f)=  0.138E+00 0.235E-01 0.000E+00 ort(H,U,f) =-0.274E-02-0.153E-01 0.000E+00
CGA:   4    -0.240928522359E+04   -0.16438E+00   -0.16682E+00   480   0.162E+00-0.180E-01
 gam= 0.467 trial= 0.456  step= 0.627 mean= 0.456
 gam= 0.435 g(H,U,f)=  0.625E-01 0.778E-02 0.000E+00 ort(H,U,f) = 0.112E-02-0.415E-02 0.000E+00
CGA:   5    -0.240933318434E+04   -0.47961E-01   -0.48069E-01   480   0.703E-01-0.303E-02
 gam= 0.435 trial= 0.465  step= 0.763 mean= 0.465
 gam= 0.550 g(H,U,f)=  0.336E-01 0.508E-02 0.000E+00 ort(H,U,f) =-0.223E-03 0.796E-03 0.000E+00
CGA:   6    -0.240935962844E+04   -0.26444E-01   -0.26324E-01   480   0.387E-01 0.573E-03
 gam= 0.550 trial= 0.480  step= 0.595 mean= 0.480
 gam= 0.438 g(H,U,f)=  0.153E-01 0.162E-02 0.000E+00 ort(H,U,f) = 0.176E-02-0.174E-02 0.000E+00
CGA:   7    -0.240937123624E+04   -0.11608E-01   -0.11605E-01   480   0.169E-01 0.141E-04
 gam= 0.438 trial= 0.485  step= 0.609 mean= 0.485
 gam= 0.408 g(H,U,f)=  0.625E-02 0.651E-03 0.000E+00 ort(H,U,f) = 0.254E-03-0.456E-03 0.000E+00
CGA:   8    -0.240937638118E+04   -0.51449E-02   -0.51577E-02   480   0.691E-02-0.202E-03
 gam= 0.408 trial= 0.492  step= 0.669 mean= 0.492
 gam= 0.456 g(H,U,f)=  0.290E-02 0.247E-03 0.000E+00 ort(H,U,f) = 0.129E-04-0.689E-04 0.000E+00
CGA:   9    -0.240937865976E+04   -0.22786E-02   -0.22828E-02   480   0.315E-02-0.560E-04
 gam= 0.456 trial= 0.500  step= 0.636 mean= 0.500
 gam= 0.509 g(H,U,f)=  0.144E-02 0.161E-03 0.000E+00 ort(H,U,f) = 0.107E-03-0.114E-03 0.000E+00
CGA:  10    -0.240937965346E+04   -0.99371E-03   -0.99440E-03   480   0.160E-02-0.784E-05
 gam= 0.509 trial= 0.507  step= 0.664 mean= 0.507
 gam= 0.492 g(H,U,f)=  0.719E-03 0.712E-04 0.000E+00 ort(H,U,f) = 0.956E-05-0.185E-04 0.000E+00
CGA:  11    -0.240938018402E+04   -0.53056E-03   -0.53127E-03   480   0.790E-03-0.893E-05
 gam= 0.492 trial= 0.515  step= 0.633 mean= 0.515
 gam= 0.522 g(H,U,f)=  0.372E-03 0.408E-04 0.000E+00 ort(H,U,f) = 0.111E-04-0.248E-04 0.000E+00
CGA:  12    -0.240938043171E+04   -0.24769E-03   -0.24857E-03   480   0.413E-03-0.136E-04
 gam= 0.522 trial= 0.521  step= 0.669 mean= 0.521
 gam= 0.528 g(H,U,f)=  0.197E-03 0.211E-04 0.000E+00 ort(H,U,f) =-0.113E-04-0.584E-05 0.000E+00
CGA:  13    -0.240938056606E+04   -0.13435E-03   -0.13564E-03   480   0.218E-03-0.171E-04
 gam= 0.528 trial= 0.528  step= 0.650 mean= 0.528
 gam= 0.550 g(H,U,f)=  0.111E-03 0.902E-05 0.000E+00 ort(H,U,f) =-0.409E-05-0.618E-05 0.000E+00
CGA:  14    -0.240938063330E+04   -0.67247E-04   -0.67880E-04   480   0.120E-03-0.103E-04
 gam= 0.550 trial= 0.534  step= 0.636 mean= 0.534
 gam= 0.596 g(H,U,f)=  0.651E-04 0.628E-05 0.000E+00 ort(H,U,f) = 0.102E-05-0.362E-05 0.000E+00
CGA:  15    -0.240938066949E+04   -0.36185E-04   -0.36319E-04   480   0.714E-04-0.260E-05
 gam= 0.596 trial= 0.540  step= 0.573 mean= 0.540
 gam= 0.577 g(H,U,f)=  0.387E-04 0.244E-05 0.000E+00 ort(H,U,f) = 0.277E-05-0.120E-05 0.000E+00
CGA:  16    -0.240938068951E+04   -0.20022E-04   -0.19998E-04   480   0.412E-04 0.157E-05
 gam= 0.577 trial= 0.541  step= 0.565 mean= 0.541
 gam= 0.540 g(H,U,f)=  0.208E-04 0.144E-05 0.000E+00 ort(H,U,f) = 0.266E-05-0.532E-06 0.000E+00
CGA:  17    -0.240938070141E+04   -0.11904E-04   -0.11880E-04   480   0.222E-04 0.213E-05
 gam= 0.540 trial= 0.542  step= 0.569 mean= 0.542
 gam= 0.546 g(H,U,f)=  0.114E-04 0.738E-06 0.000E+00 ort(H,U,f) = 0.147E-05-0.509E-06 0.000E+00
CGA:  18    -0.240938070808E+04   -0.66604E-05   -0.66479E-05   480   0.121E-04 0.960E-06
 gam= 0.546 trial= 0.544  step= 0.652 mean= 0.544
   1 F= -.24093807E+04 E0= -.24093807E+04  d E =-.240938E+04  mag=     2.0000
 curvature:   0.00 expect dE= 0.000E+00 dE for cont linesearch  0.000E+00
 trial: gam= 0.00000 g(F)=  0.888E+00 g(S)=  0.000E+00 ort = 0.000E+00 (trialstep = 0.100E+01)
 search vector abs. value=  0.888E+00
 bond charge predicted
 writing wavefunctions

 ----------------------------------------------------------------------------- 
|                                                                             |
|           W    W    AA    RRRRR   N    N  II  N    N   GGGG   !!!           |
|           W    W   A  A   R    R  NN   N  II  NN   N  G    G  !!!           |
|           W    W  A    A  R    R  N N  N  II  N N  N  G       !!!           |
|           W WW W  AAAAAA  RRRRR   N  N N  II  N  N N  G  GGG   !            |
|           WW  WW  A    A  R   R   N   NN  II  N   NN  G    G                |
|           W    W  A    A  R    R  N    N  II  N    N   GGGG   !!!           |
|                                                                             |
|      ALGO=A and IALGO=5X tend to fail with the tetrahedron method           |
|      (e.g. Bloechls method ISMEAR=-5 is not variational)                    |
|      please switch to IMSEAR=0-n, except for DOS calculations               |
|      For DOS calculations use IALGO=53 after preconverging with ISMEAR>=0   |
|          I HOPE YOU KNOW, WHAT YOU ARE  DOING                               |
|                                                                             |
 ----------------------------------------------------------------------------- 

       N       E                     dE             d eps       ncg     rms          ort
 gam= 0.000 g(H,U,f)=  0.235E+02 0.184E+01 0.000E+00 ort(H,U,f) = 0.000E+00 0.000E+00 0.000E+00
SDA:   1    -0.239743247749E+04    0.11948E+02    0.00000E+00   480   0.253E+02 0.000E+00
 gam= 0.000 trial= 0.549  step= 0.751 mean= 0.549
 gam= 0.284 g(H,U,f)=  0.580E+01 0.138E+01 0.000E+00 ort(H,U,f) =-0.176E+01-0.850E+00 0.000E+00
CGA:   2    -0.240677044564E+04   -0.93380E+01   -0.95062E+01   480   0.719E+01-0.261E+01
 gam= 0.284 trial= 0.559  step= 0.458 mean= 0.559
 gam= 0.271 g(H,U,f)=  0.177E+01 0.174E+00 0.000E+00 ort(H,U,f) = 0.916E+00-0.228E-01 0.000E+00
CGA:   3    -0.240817628749E+04   -0.14058E+01   -0.14768E+01   480   0.194E+01 0.894E+00
 gam= 0.271 trial= 0.554  step= 0.557 mean= 0.554
 gam= 0.456 g(H,U,f)=  0.786E+00 0.101E+00 0.000E+00 ort(H,U,f) =-0.247E-01-0.207E-01 0.000E+00
CGA:   4    -0.240878474831E+04   -0.60846E+00   -0.60857E+00   480   0.887E+00-0.455E-01
 gam= 0.456 trial= 0.554  step= 0.451 mean= 0.554
 gam= 0.461 g(H,U,f)=  0.380E+00 0.295E-01 0.000E+00 ort(H,U,f) = 0.594E-02-0.578E-02 0.000E+00
CGA:   5    -0.240898100672E+04   -0.19626E+00   -0.19531E+00   480   0.409E+00 0.154E-03
 gam= 0.461 trial= 0.549  step= 0.448 mean= 0.549
 gam= 0.510 g(H,U,f)=  0.191E+00 0.174E-01 0.000E+00 ort(H,U,f) = 0.232E-01-0.619E-02 0.000E+00
CGA:   6    -0.240907163559E+04   -0.90629E-01   -0.91698E-01   480   0.209E+00 0.170E-01
 gam= 0.510 trial= 0.544  step= 0.415 mean= 0.544
 gam= 0.555 g(H,U,f)=  0.107E+00 0.904E-02 0.000E+00 ort(H,U,f) = 0.166E-01-0.423E-02 0.000E+00
CGA:   7    -0.240911599448E+04   -0.44359E-01   -0.45097E-01   480   0.116E+00 0.124E-01
 gam= 0.555 trial= 0.538  step= 0.382 mean= 0.538
 gam= 0.526 g(H,U,f)=  0.554E-01 0.551E-02 0.000E+00 ort(H,U,f) = 0.437E-02-0.148E-03 0.000E+00
CGA:   8    -0.240913936461E+04   -0.23370E-01   -0.23444E-01   480   0.609E-01 0.423E-02
 gam= 0.526 trial= 0.530  step= 0.345 mean= 0.530
 gam= 0.546 g(H,U,f)=  0.313E-01 0.195E-02 0.000E+00 ort(H,U,f) = 0.188E-02 0.299E-03 0.000E+00
CGA:   9    -0.240915012673E+04   -0.10762E-01   -0.10896E-01   480   0.332E-01 0.218E-02
 gam= 0.546 trial= 0.521  step= 0.381 mean= 0.521
 gam= 0.663 g(H,U,f)=  0.203E-01 0.172E-02 0.000E+00 ort(H,U,f) = 0.175E-02-0.356E-03 0.000E+00
CGA:  10    -0.240915655381E+04   -0.64271E-02   -0.65565E-02   480   0.220E-01 0.140E-02
 gam= 0.663 trial= 0.514  step= 0.344 mean= 0.514
 gam= 0.566 g(H,U,f)=  0.118E-01 0.674E-03 0.000E+00 ort(H,U,f) = 0.136E-02-0.252E-04 0.000E+00
CGA:  11    -0.240916037658E+04   -0.38228E-02   -0.39472E-02   480   0.125E-01 0.133E-02
 gam= 0.566 trial= 0.505  step= 0.330 mean= 0.505
 gam= 0.652 g(H,U,f)=  0.766E-02 0.482E-03 0.000E+00 ort(H,U,f) = 0.990E-03-0.346E-03 0.000E+00
CGA:  12    -0.240916249935E+04   -0.21228E-02   -0.21858E-02   480   0.814E-02 0.644E-03
 gam= 0.652 trial= 0.496  step= 0.338 mean= 0.496
 gam= 0.743 g(H,U,f)=  0.551E-02 0.538E-03 0.000E+00 ort(H,U,f) = 0.451E-03-0.107E-03 0.000E+00
CGA:  13    -0.240916391537E+04   -0.14160E-02   -0.14453E-02   480   0.605E-02 0.344E-03
 gam= 0.743 trial= 0.488  step= 0.297 mean= 0.488
 gam= 0.673 g(H,U,f)=  0.380E-02 0.265E-03 0.000E+00 ort(H,U,f) = 0.127E-03 0.107E-03 0.000E+00
CGA:  14    -0.240916483319E+04   -0.91781E-03   -0.93465E-03   480   0.407E-02 0.234E-03
 gam= 0.673 trial= 0.479  step= 0.277 mean= 0.479
 gam= 0.712 g(H,U,f)=  0.274E-02 0.153E-03 0.000E+00 ort(H,U,f) = 0.161E-03 0.492E-05 0.000E+00
CGA:  15    -0.240916539932E+04   -0.56613E-03   -0.58446E-03   480   0.290E-02 0.165E-03
 gam= 0.712 trial= 0.469  step= 0.272 mean= 0.469
 gam= 0.766 g(H,U,f)=  0.208E-02 0.133E-03 0.000E+00 ort(H,U,f) = 0.177E-03-0.400E-04 0.000E+00
CGA:  16    -0.240916579078E+04   -0.39146E-03   -0.41035E-03   480   0.222E-02 0.137E-03
 gam= 0.766 trial= 0.459  step= 0.256 mean= 0.459
 gam= 0.746 g(H,U,f)=  0.157E-02 0.902E-04 0.000E+00 ort(H,U,f) = 0.140E-03-0.358E-04 0.000E+00
CGA:  17    -0.240916607404E+04   -0.28326E-03   -0.29675E-03   480   0.166E-02 0.104E-03
 gam= 0.746 trial= 0.449  step= 0.244 mean= 0.449
 gam= 0.751 g(H,U,f)=  0.117E-02 0.719E-04 0.000E+00 ort(H,U,f) = 0.101E-03-0.343E-04 0.000E+00
CGA:  18    -0.240916627592E+04   -0.20187E-03   -0.21100E-03   480   0.124E-02 0.667E-04
 gam= 0.751 trial= 0.438  step= 0.238 mean= 0.438
 gam= 0.759 g(H,U,f)=  0.885E-03 0.590E-04 0.000E+00 ort(H,U,f) = 0.572E-04-0.120E-04 0.000E+00
CGA:  19    -0.240916642291E+04   -0.14699E-03   -0.15371E-03   480   0.944E-03 0.452E-04
 gam= 0.759 trial= 0.428  step= 0.229 mean= 0.428
 gam= 0.755 g(H,U,f)=  0.676E-03 0.367E-04 0.000E+00 ort(H,U,f) = 0.288E-04 0.379E-05 0.000E+00
CGA:  20    -0.240916653027E+04   -0.10736E-03   -0.11231E-03   480   0.713E-03 0.326E-04
 gam= 0.755 trial= 0.419  step= 0.226 mean= 0.419
 gam= 0.778 g(H,U,f)=  0.529E-03 0.256E-04 0.000E+00 ort(H,U,f) = 0.227E-04 0.556E-06 0.000E+00
CGA:  21    -0.240916661004E+04   -0.79769E-04   -0.83261E-04   480   0.555E-03 0.233E-04
 gam= 0.778 trial= 0.409  step= 0.222 mean= 0.409
 gam= 0.786 g(H,U,f)=  0.415E-03 0.211E-04 0.000E+00 ort(H,U,f) = 0.184E-04-0.711E-06 0.000E+00
CGA:  22    -0.240916667117E+04   -0.61130E-04   -0.63602E-04   480   0.436E-03 0.177E-04
 gam= 0.786 trial= 0.400  step= 0.214 mean= 0.400
 gam= 0.768 g(H,U,f)=  0.321E-03 0.132E-04 0.000E+00 ort(H,U,f) = 0.133E-04-0.515E-06 0.000E+00
CGA:  23    -0.240916671765E+04   -0.46484E-04   -0.48182E-04   480   0.335E-03 0.128E-04
 gam= 0.768 trial= 0.390  step= 0.212 mean= 0.390
 gam= 0.791 g(H,U,f)=  0.255E-03 0.928E-05 0.000E+00 ort(H,U,f) = 0.136E-04-0.531E-05 0.000E+00
CGA:  24    -0.240916675308E+04   -0.35421E-04   -0.36527E-04   480   0.265E-03 0.828E-05
 gam= 0.791 trial= 0.381  step= 0.215 mean= 0.381
 gam= 0.828 g(H,U,f)=  0.208E-03 0.109E-04 0.000E+00 ort(H,U,f) = 0.124E-04-0.669E-05 0.000E+00
CGA:  25    -0.240916678142E+04   -0.28350E-04   -0.29129E-04   480   0.219E-03 0.566E-05
 gam= 0.828 trial= 0.373  step= 0.212 mean= 0.373
 gam= 0.808 g(H,U,f)=  0.167E-03 0.103E-04 0.000E+00 ort(H,U,f) = 0.611E-05-0.165E-05 0.000E+00
CGA:  26    -0.240916680444E+04   -0.23013E-04   -0.23665E-04   480   0.177E-03 0.447E-05
 gam= 0.808 trial= 0.365  step= 0.205 mean= 0.365
 gam= 0.784 g(H,U,f)=  0.132E-03 0.637E-05 0.000E+00 ort(H,U,f) = 0.208E-05 0.155E-05 0.000E+00
CGA:  27    -0.240916682237E+04   -0.17931E-04   -0.18490E-04   480   0.139E-03 0.362E-05
 gam= 0.784 trial= 0.357  step= 0.204 mean= 0.357
 gam= 0.812 g(H,U,f)=  0.108E-03 0.454E-05 0.000E+00 ort(H,U,f) = 0.278E-05 0.121E-07 0.000E+00
CGA:  28    -0.240916683636E+04   -0.13990E-04   -0.14412E-04   480   0.113E-03 0.279E-05
 gam= 0.812 trial= 0.349  step= 0.206 mean= 0.349
 gam= 0.853 g(H,U,f)=  0.913E-04 0.475E-05 0.000E+00 ort(H,U,f) = 0.305E-05-0.946E-06 0.000E+00
CGA:  29    -0.240916684790E+04   -0.11542E-04   -0.11832E-04   480   0.961E-04 0.210E-05
 gam= 0.853 trial= 0.342  step= 0.201 mean= 0.342
 gam= 0.831 g(H,U,f)=  0.759E-04 0.391E-05 0.000E+00 ort(H,U,f) = 0.168E-05-0.138E-06 0.000E+00
CGA:  30    -0.240916685752E+04   -0.96147E-05   -0.98170E-05   480   0.798E-04 0.154E-05
 gam= 0.831 trial= 0.335  step= 0.194 mean= 0.335
   2 F= -.24091669E+04 E0= -.24091669E+04  d E =0.213851E+00  mag=     2.0000
 trial-energy change:    0.213851  1 .order    0.223261   -0.888030    1.334552
 step:   0.4057(harm=  0.3995)  dis= 0.02925  next Energy= -2409.561462 (dE=-0.181E+00)
 bond charge predicted
 writing wavefunctions

 ----------------------------------------------------------------------------- 
|                                                                             |
|           W    W    AA    RRRRR   N    N  II  N    N   GGGG   !!!           |
|           W    W   A  A   R    R  NN   N  II  NN   N  G    G  !!!           |
|           W    W  A    A  R    R  N N  N  II  N N  N  G       !!!           |
|           W WW W  AAAAAA  RRRRR   N  N N  II  N  N N  G  GGG   !            |
|           WW  WW  A    A  R   R   N   NN  II  N   NN  G    G                |
|           W    W  A    A  R    R  N    N  II  N    N   GGGG   !!!           |
|                                                                             |
|      ALGO=A and IALGO=5X tend to fail with the tetrahedron method           |
|      (e.g. Bloechls method ISMEAR=-5 is not variational)                    |
|      please switch to IMSEAR=0-n, except for DOS calculations               |
|      For DOS calculations use IALGO=53 after preconverging with ISMEAR>=0   |
|          I HOPE YOU KNOW, WHAT YOU ARE  DOING                               |
|                                                                             |
 ----------------------------------------------------------------------------- 

       N       E                     dE             d eps       ncg     rms          ort
 gam= 0.000 g(H,U,f)=  0.829E+01 0.653E+00 0.000E+00 ort(H,U,f) = 0.000E+00 0.000E+00 0.000E+00
SDA:   1    -0.240540774739E+04    0.37591E+01    0.00000E+00   480   0.894E+01 0.000E+00
 gam= 0.000 trial= 0.328  step= 0.757 mean= 0.328
 gam= 0.290 g(H,U,f)=  0.208E+01 0.507E+00 0.000E+00 ort(H,U,f) =-0.402E+00-0.346E+00 0.000E+00
CGA:   2    -0.240871616090E+04   -0.33084E+01   -0.33830E+01   480   0.259E+01-0.748E+00
 gam= 0.290 trial= 0.349  step= 0.486 mean= 0.349
 gam= 0.213 g(H,U,f)=  0.499E+00 0.523E-01 0.000E+00 ort(H,U,f) = 0.281E-01-0.335E-01 0.000E+00
CGA:   3    -0.240929530638E+04   -0.57915E+00   -0.57737E+00   480   0.551E+00-0.541E-02
 gam= 0.213 trial= 0.356  step= 0.644 mean= 0.356
 gam= 0.371 g(H,U,f)=  0.184E+00 0.210E-01 0.000E+00 ort(H,U,f) =-0.407E-02-0.830E-02 0.000E+00
CGA:   4    -0.240947105307E+04   -0.17575E+00   -0.17706E+00   480   0.205E+00-0.124E-01
 gam= 0.371 trial= 0.371  step= 0.589 mean= 0.371
 gam= 0.353 g(H,U,f)=  0.651E-01 0.720E-02 0.000E+00 ort(H,U,f) =-0.134E-02-0.156E-02 0.000E+00
CGA:   5    -0.240952972110E+04   -0.58668E-01   -0.58894E-01   480   0.723E-01-0.289E-02
 gam= 0.353 trial= 0.382  step= 0.537 mean= 0.382
 gam= 0.393 g(H,U,f)=  0.264E-01 0.196E-02 0.000E+00 ort(H,U,f) = 0.445E-04-0.144E-02 0.000E+00
CGA:   6    -0.240954874745E+04   -0.19026E-01   -0.19121E-01   480   0.284E-01-0.139E-02
 gam= 0.393 trial= 0.389  step= 0.606 mean= 0.389
 gam= 0.385 g(H,U,f)=  0.996E-02 0.970E-03 0.000E+00 ort(H,U,f) =-0.849E-04-0.178E-03 0.000E+00
CGA:   7    -0.240955716324E+04   -0.84158E-02   -0.84363E-02   480   0.109E-01-0.262E-03
 gam= 0.385 trial= 0.400  step= 0.540 mean= 0.400
 gam= 0.433 g(H,U,f)=  0.430E-02 0.436E-03 0.000E+00 ort(H,U,f) = 0.152E-03-0.200E-03 0.000E+00
CGA:   8    -0.240956008773E+04   -0.29245E-02   -0.29269E-02   480   0.473E-02-0.479E-04
 gam= 0.433 trial= 0.407  step= 0.599 mean= 0.407
 gam= 0.390 g(H,U,f)=  0.173E-02 0.115E-03 0.000E+00 ort(H,U,f) =-0.363E-04-0.511E-05 0.000E+00
CGA:   9    -0.240956149697E+04   -0.14092E-02   -0.14105E-02   480   0.185E-02-0.414E-04
 gam= 0.390 trial= 0.417  step= 0.574 mean= 0.417
 gam= 0.465 g(H,U,f)=  0.783E-03 0.764E-04 0.000E+00 ort(H,U,f) = 0.367E-04-0.557E-04 0.000E+00
CGA:  10    -0.240956202097E+04   -0.52400E-03   -0.52544E-03   480   0.859E-03-0.190E-04
 gam= 0.465 trial= 0.425  step= 0.558 mean= 0.425
 gam= 0.438 g(H,U,f)=  0.343E-03 0.336E-04 0.000E+00 ort(H,U,f) = 0.434E-05-0.106E-04 0.000E+00
CGA:  11    -0.240956225788E+04   -0.23691E-03   -0.23735E-03   480   0.377E-03-0.630E-05
 gam= 0.438 trial= 0.431  step= 0.562 mean= 0.431
 gam= 0.466 g(H,U,f)=  0.161E-03 0.146E-04 0.000E+00 ort(H,U,f) =-0.396E-06-0.112E-05 0.000E+00
CGA:  12    -0.240956236284E+04   -0.10496E-03   -0.10503E-03   480   0.176E-03-0.152E-05
 gam= 0.466 trial= 0.438  step= 0.542 mean= 0.438
 gam= 0.477 g(H,U,f)=  0.776E-04 0.607E-05 0.000E+00 ort(H,U,f) = 0.268E-05-0.343E-05 0.000E+00
CGA:  13    -0.240956241015E+04   -0.47311E-04   -0.47337E-04   480   0.837E-04-0.744E-06
 gam= 0.477 trial= 0.443  step= 0.548 mean= 0.443
 gam= 0.440 g(H,U,f)=  0.342E-04 0.259E-05 0.000E+00 ort(H,U,f) = 0.372E-06-0.108E-05 0.000E+00
CGA:  14    -0.240956243293E+04   -0.22785E-04   -0.22823E-04   480   0.368E-04-0.712E-06
 gam= 0.440 trial= 0.448  step= 0.546 mean= 0.448
 gam= 0.506 g(H,U,f)=  0.171E-04 0.153E-05 0.000E+00 ort(H,U,f) = 0.401E-06-0.790E-06 0.000E+00
CGA:  15    -0.240956244288E+04   -0.99472E-05   -0.99668E-05   480   0.187E-04-0.388E-06
 gam= 0.506 trial= 0.453  step= 0.547 mean= 0.453
   3 F= -.24095624E+04 E0= -.24095624E+04  d E =-.181735E+00  mag=     2.0000
 curvature:  -0.20 expect dE=-0.392E-01 dE for cont linesearch -0.992E-06
 trial: gam= 0.21854 g(F)=  0.196E+00 g(S)=  0.000E+00 ort = 0.210E-02 (trialstep = 0.881E+00)
 search vector abs. value=  0.239E+00
 bond charge predicted
 writing wavefunctions

 ----------------------------------------------------------------------------- 
|                                                                             |
|           W    W    AA    RRRRR   N    N  II  N    N   GGGG   !!!           |
|           W    W   A  A   R    R  NN   N  II  NN   N  G    G  !!!           |
|           W    W  A    A  R    R  N N  N  II  N N  N  G       !!!           |
|           W WW W  AAAAAA  RRRRR   N  N N  II  N  N N  G  GGG   !            |
|           WW  WW  A    A  R   R   N   NN  II  N   NN  G    G                |
|           W    W  A    A  R    R  N    N  II  N    N   GGGG   !!!           |
|                                                                             |
|      ALGO=A and IALGO=5X tend to fail with the tetrahedron method           |
|      (e.g. Bloechls method ISMEAR=-5 is not variational)                    |
|      please switch to IMSEAR=0-n, except for DOS calculations               |
|      For DOS calculations use IALGO=53 after preconverging with ISMEAR>=0   |
|          I HOPE YOU KNOW, WHAT YOU ARE  DOING                               |
|                                                                             |
 ----------------------------------------------------------------------------- 

       N       E                     dE             d eps       ncg     rms          ort
 gam= 0.000 g(H,U,f)=  0.489E+01 0.544E+00 0.000E+00 ort(H,U,f) = 0.000E+00 0.000E+00 0.000E+00
SDA:   1    -0.240721697089E+04    0.23455E+01    0.00000E+00   480   0.543E+01 0.000E+00
 gam= 0.000 trial= 0.458  step= 0.664 mean= 0.458
 gam= 0.357 g(H,U,f)=  0.150E+01 0.440E+00 0.000E+00 ort(H,U,f) = 0.996E-01-0.286E+00 0.000E+00
CGA:   2    -0.240900091648E+04   -0.17839E+01   -0.18020E+01   480   0.194E+01-0.186E+00
 gam= 0.357 trial= 0.468  step= 0.501 mean= 0.468
 gam= 0.148 g(H,U,f)=  0.255E+00 0.315E-01 0.000E+00 ort(H,U,f) = 0.824E-01-0.291E-01 0.000E+00
CGA:   3    -0.240947179123E+04   -0.47087E+00   -0.46886E+00   480   0.286E+00 0.533E-01
 gam= 0.148 trial= 0.470  step= 0.742 mean= 0.470
 gam= 0.297 g(H,U,f)=  0.755E-01 0.943E-02 0.000E+00 ort(H,U,f) =-0.861E-02-0.247E-04 0.000E+00
CGA:   4    -0.240958008276E+04   -0.10829E+00   -0.10906E+00   480   0.849E-01-0.863E-02
 gam= 0.297 trial= 0.483  step= 0.594 mean= 0.483
 gam= 0.361 g(H,U,f)=  0.273E-01 0.336E-02 0.000E+00 ort(H,U,f) = 0.484E-03-0.138E-02 0.000E+00
CGA:   5    -0.240960447327E+04   -0.24391E-01   -0.24454E-01   480   0.306E-01-0.896E-03
 gam= 0.361 trial= 0.489  step= 0.618 mean= 0.489
 gam= 0.372 g(H,U,f)=  0.104E-01 0.102E-02 0.000E+00 ort(H,U,f) = 0.625E-03-0.822E-03 0.000E+00
CGA:   6    -0.240961382381E+04   -0.93505E-02   -0.93571E-02   480   0.114E-01-0.197E-03
 gam= 0.372 trial= 0.495  step= 0.643 mean= 0.495
 gam= 0.334 g(H,U,f)=  0.336E-02 0.441E-03 0.000E+00 ort(H,U,f) = 0.831E-04-0.144E-03 0.000E+00
CGA:   7    -0.240961745417E+04   -0.36304E-02   -0.36347E-02   480   0.380E-02-0.611E-04
 gam= 0.334 trial= 0.503  step= 0.647 mean= 0.503
 gam= 0.406 g(H,U,f)=  0.136E-02 0.182E-03 0.000E+00 ort(H,U,f) = 0.162E-04-0.432E-04 0.000E+00
CGA:   8    -0.240961867663E+04   -0.12225E-02   -0.12244E-02   480   0.155E-02-0.270E-04
 gam= 0.406 trial= 0.510  step= 0.588 mean= 0.510
 gam= 0.348 g(H,U,f)=  0.500E-03 0.374E-04 0.000E+00 ort(H,U,f) = 0.227E-04-0.284E-04 0.000E+00
CGA:   9    -0.240961912719E+04   -0.45056E-03   -0.45081E-03   480   0.537E-03-0.570E-05
 gam= 0.348 trial= 0.514  step= 0.688 mean= 0.514
 gam= 0.400 g(H,U,f)=  0.192E-03 0.227E-04 0.000E+00 ort(H,U,f) = 0.890E-05-0.114E-04 0.000E+00
CGA:  10    -0.240961931095E+04   -0.18377E-03   -0.18395E-03   480   0.215E-03-0.253E-05
 gam= 0.400 trial= 0.523  step= 0.619 mean= 0.523
 gam= 0.418 g(H,U,f)=  0.790E-04 0.109E-04 0.000E+00 ort(H,U,f) = 0.360E-05-0.474E-05 0.000E+00
CGA:  11    -0.240961937705E+04   -0.66095E-04   -0.66160E-04   480   0.898E-04-0.115E-05
 gam= 0.418 trial= 0.527  step= 0.649 mean= 0.527
 gam= 0.414 g(H,U,f)=  0.340E-04 0.321E-05 0.000E+00 ort(H,U,f) =-0.118E-06-0.628E-06 0.000E+00
CGA:  12    -0.240961940600E+04   -0.28951E-04   -0.28998E-04   480   0.372E-04-0.746E-06
 gam= 0.414 trial= 0.533  step= 0.652 mean= 0.533
 gam= 0.435 g(H,U,f)=  0.150E-04 0.115E-05 0.000E+00 ort(H,U,f) = 0.620E-06-0.987E-06 0.000E+00
CGA:  13    -0.240961941800E+04   -0.11997E-04   -0.12020E-04   480   0.162E-04-0.367E-06
 gam= 0.435 trial= 0.539  step= 0.659 mean= 0.539
 gam= 0.466 g(H,U,f)=  0.671E-05 0.828E-06 0.000E+00 ort(H,U,f) = 0.380E-06-0.483E-06 0.000E+00
CGA:  14    -0.240961942326E+04   -0.52656E-05   -0.52720E-05   480   0.754E-05-0.103E-06
 gam= 0.466 trial= 0.545  step= 0.625 mean= 0.545
   4 F= -.24096194E+04 E0= -.24096194E+04  d E =-.569804E-01  mag=     2.0000
 trial-energy change:   -0.056980  1 .order   -0.056699   -0.173255    0.059857
 step:   0.6549(harm=  0.6549)  dis= 0.02196  next Energy= -2409.626827 (dE=-0.644E-01)
 bond charge predicted
 writing wavefunctions

 ----------------------------------------------------------------------------- 
|                                                                             |
|           W    W    AA    RRRRR   N    N  II  N    N   GGGG   !!!           |
|           W    W   A  A   R    R  NN   N  II  NN   N  G    G  !!!           |
|           W    W  A    A  R    R  N N  N  II  N N  N  G       !!!           |
|           W WW W  AAAAAA  RRRRR   N  N N  II  N  N N  G  GGG   !            |
|           WW  WW  A    A  R   R   N   NN  II  N   NN  G    G                |
|           W    W  A    A  R    R  N    N  II  N    N   GGGG   !!!           |
|                                                                             |
|      ALGO=A and IALGO=5X tend to fail with the tetrahedron method           |
|      (e.g. Bloechls method ISMEAR=-5 is not variational)                    |
|      please switch to IMSEAR=0-n, except for DOS calculations               |
|      For DOS calculations use IALGO=53 after preconverging with ISMEAR>=0   |
|          I HOPE YOU KNOW, WHAT YOU ARE  DOING                               |
|                                                                             |
 ----------------------------------------------------------------------------- 

       N       E                     dE             d eps       ncg     rms          ort
 gam= 0.000 g(H,U,f)=  0.321E+00 0.349E-01 0.000E+00 ort(H,U,f) = 0.000E+00 0.000E+00 0.000E+00
SDA:   1    -0.240946863880E+04    0.15078E+00    0.00000E+00   480   0.356E+00 0.000E+00
 gam= 0.000 trial= 0.549  step= 0.667 mean= 0.549
 gam= 0.362 g(H,U,f)=  0.987E-01 0.302E-01 0.000E+00 ort(H,U,f) = 0.187E-01-0.209E-01 0.000E+00
CGA:   2    -0.240958728637E+04   -0.11865E+00   -0.11868E+00   480   0.129E+00-0.216E-02
 gam= 0.362 trial= 0.555  step= 0.516 mean= 0.555
 gam= 0.116 g(H,U,f)=  0.130E-01 0.190E-02 0.000E+00 ort(H,U,f) = 0.370E-02-0.226E-02 0.000E+00
CGA:   3    -0.240962025499E+04   -0.32969E-01   -0.33029E-01   480   0.149E-01 0.144E-02
 gam= 0.116 trial= 0.553  step= 0.689 mean= 0.553
 gam= 0.217 g(H,U,f)=  0.286E-02 0.392E-03 0.000E+00 ort(H,U,f) =-0.103E-04-0.244E-04 0.000E+00
CGA:   4    -0.240962545820E+04   -0.52032E-02   -0.52050E-02   480   0.325E-02-0.348E-04
 gam= 0.217 trial= 0.560  step= 0.687 mean= 0.560
 gam= 0.277 g(H,U,f)=  0.791E-03 0.110E-03 0.000E+00 ort(H,U,f) = 0.589E-04-0.623E-04 0.000E+00
CGA:   5    -0.240962657072E+04   -0.11125E-02   -0.11127E-02   480   0.901E-03-0.341E-05
 gam= 0.277 trial= 0.566  step= 0.713 mean= 0.566
 gam= 0.393 g(H,U,f)=  0.302E-03 0.521E-04 0.000E+00 ort(H,U,f) = 0.403E-04-0.413E-04 0.000E+00
CGA:   6    -0.240962689127E+04   -0.32054E-03   -0.32061E-03   480   0.354E-03-0.926E-06
 gam= 0.393 trial= 0.574  step= 0.666 mean= 0.574
 gam= 0.317 g(H,U,f)=  0.982E-04 0.141E-04 0.000E+00 ort(H,U,f) = 0.714E-05-0.750E-05 0.000E+00
CGA:   7    -0.240962700908E+04   -0.11782E-03   -0.11785E-03   480   0.112E-03-0.363E-06
 gam= 0.317 trial= 0.578  step= 0.739 mean= 0.578
 gam= 0.295 g(H,U,f)=  0.302E-04 0.293E-05 0.000E+00 ort(H,U,f) = 0.134E-05-0.160E-05 0.000E+00
CGA:   8    -0.240962705050E+04   -0.41411E-04   -0.41430E-04   480   0.331E-04-0.261E-06
 gam= 0.295 trial= 0.586  step= 0.748 mean= 0.586
 gam= 0.340 g(H,U,f)=  0.101E-04 0.117E-05 0.000E+00 ort(H,U,f) = 0.103E-05-0.947E-06 0.000E+00
CGA:   9    -0.240962706287E+04   -0.12370E-04   -0.12364E-04   480   0.112E-04 0.785E-07
 gam= 0.340 trial= 0.594  step= 0.762 mean= 0.594
 gam= 0.352 g(H,U,f)=  0.352E-05 0.439E-06 0.000E+00 ort(H,U,f) = 0.335E-06-0.378E-06 0.000E+00
CGA:  10    -0.240962706715E+04   -0.42894E-05   -0.42930E-05   480   0.396E-05-0.430E-07
 gam= 0.352 trial= 0.603  step= 0.809 mean= 0.603
   5 F= -.24096271E+04 E0= -.24096271E+04  d E =-.646243E-01  mag=     2.0000
 curvature:  -0.40 expect dE=-0.247E-01 dE for cont linesearch -0.364E-06
 trial: gam= 0.30351 g(F)=  0.618E-01 g(S)=  0.000E+00 ort = 0.467E-03 (trialstep = 0.836E+00)
 search vector abs. value=  0.842E-01
 bond charge predicted
 writing wavefunctions

 ----------------------------------------------------------------------------- 
|                                                                             |
|           W    W    AA    RRRRR   N    N  II  N    N   GGGG   !!!           |
|           W    W   A  A   R    R  NN   N  II  NN   N  G    G  !!!           |
|           W    W  A    A  R    R  N N  N  II  N N  N  G       !!!           |
|           W WW W  AAAAAA  RRRRR   N  N N  II  N  N N  G  GGG   !            |
|           WW  WW  A    A  R   R   N   NN  II  N   NN  G    G                |
|           W    W  A    A  R    R  N    N  II  N    N   GGGG   !!!           |
|                                                                             |
|      ALGO=A and IALGO=5X tend to fail with the tetrahedron method           |
|      (e.g. Bloechls method ISMEAR=-5 is not variational)                    |
|      please switch to IMSEAR=0-n, except for DOS calculations               |
|      For DOS calculations use IALGO=53 after preconverging with ISMEAR>=0   |
|          I HOPE YOU KNOW, WHAT YOU ARE  DOING                               |
|                                                                             |
 ----------------------------------------------------------------------------- 

       N       E                     dE             d eps       ncg     rms          ort
 gam= 0.000 g(H,U,f)=  0.166E+01 0.209E+00 0.000E+00 ort(H,U,f) = 0.000E+00 0.000E+00 0.000E+00
SDA:   1    -0.240887631601E+04    0.75075E+00    0.00000E+00   480   0.187E+01 0.000E+00
 gam= 0.000 trial= 0.613  step= 0.587 mean= 0.613
 gam= 0.351 g(H,U,f)=  0.507E+00 0.149E+00 0.000E+00 ort(H,U,f) = 0.137E+00-0.122E+00 0.000E+00
CGA:   2    -0.240942339434E+04   -0.54708E+00   -0.54740E+00   480   0.656E+00 0.151E-01
 gam= 0.351 trial= 0.612  step= 0.555 mean= 0.612
 gam= 0.122 g(H,U,f)=  0.683E-01 0.116E-01 0.000E+00 ort(H,U,f) = 0.350E-01-0.790E-02 0.000E+00
CGA:   3    -0.240960559423E+04   -0.18220E+00   -0.18355E+00   480   0.800E-01 0.271E-01
 gam= 0.122 trial= 0.609  step= 0.685 mean= 0.609
 gam= 0.225 g(H,U,f)=  0.158E-01 0.221E-02 0.000E+00 ort(H,U,f) =-0.436E-03-0.267E-03 0.000E+00
CGA:   4    -0.240963407449E+04   -0.28480E-01   -0.28509E-01   480   0.180E-01-0.703E-03
 gam= 0.225 trial= 0.613  step= 0.694 mean= 0.613
 gam= 0.320 g(H,U,f)=  0.503E-02 0.734E-03 0.000E+00 ort(H,U,f) = 0.334E-03-0.424E-03 0.000E+00
CGA:   5    -0.240964027286E+04   -0.61984E-02   -0.62026E-02   480   0.576E-02-0.908E-04
 gam= 0.320 trial= 0.617  step= 0.631 mean= 0.617
 gam= 0.379 g(H,U,f)=  0.188E-02 0.301E-03 0.000E+00 ort(H,U,f) = 0.316E-03-0.324E-03 0.000E+00
CGA:   6    -0.240964208186E+04   -0.18090E-02   -0.18091E-02   480   0.218E-02-0.733E-05
 gam= 0.379 trial= 0.618  step= 0.693 mean= 0.618
 gam= 0.305 g(H,U,f)=  0.586E-03 0.797E-04 0.000E+00 ort(H,U,f) = 0.265E-04-0.362E-04 0.000E+00
CGA:   7    -0.240964283576E+04   -0.75390E-03   -0.75451E-03   480   0.666E-03-0.963E-05
 gam= 0.305 trial= 0.621  step= 0.717 mean= 0.621
 gam= 0.324 g(H,U,f)=  0.192E-03 0.235E-04 0.000E+00 ort(H,U,f) = 0.259E-05-0.478E-05 0.000E+00
CGA:   8    -0.240964307343E+04   -0.23768E-03   -0.23781E-03   480   0.216E-03-0.219E-05
 gam= 0.324 trial= 0.626  step= 0.690 mean= 0.626
 gam= 0.349 g(H,U,f)=  0.672E-04 0.799E-05 0.000E+00 ort(H,U,f) = 0.518E-05-0.591E-05 0.000E+00
CGA:   9    -0.240964314758E+04   -0.74144E-04   -0.74169E-04   480   0.752E-04-0.724E-06
 gam= 0.349 trial= 0.629  step= 0.716 mean= 0.629
 gam= 0.392 g(H,U,f)=  0.253E-04 0.418E-05 0.000E+00 ort(H,U,f) = 0.326E-05-0.341E-05 0.000E+00
CGA:  10    -0.240964317442E+04   -0.26842E-04   -0.26849E-04   480   0.295E-04-0.145E-06
 gam= 0.392 trial= 0.634  step= 0.700 mean= 0.634
 gam= 0.406 g(H,U,f)=  0.106E-04 0.140E-05 0.000E+00 ort(H,U,f) = 0.526E-06-0.614E-06 0.000E+00
CGA:  11    -0.240964318472E+04   -0.10303E-04   -0.10306E-04   480   0.120E-04-0.877E-07
 gam= 0.406 trial= 0.637  step= 0.769 mean= 0.637
 gam= 0.370 g(H,U,f)=  0.415E-05 0.278E-06 0.000E+00 ort(H,U,f) = 0.836E-07-0.181E-06 0.000E+00
CGA:  12    -0.240964318930E+04   -0.45821E-05   -0.45885E-05   480   0.443E-05-0.977E-07
 gam= 0.370 trial= 0.644  step= 0.831 mean= 0.644
   6 F= -.24096432E+04 E0= -.24096432E+04  d E =-.161221E-01  mag=     2.0000
 trial-energy change:   -0.016122  1 .order   -0.016298   -0.051787    0.019191
 step:   0.6074(harm=  0.6099)  dis= 0.00854  next Energy= -2409.645816 (dE=-0.187E-01)
 bond charge predicted
 writing wavefunctions

 ----------------------------------------------------------------------------- 
|                                                                             |
|           W    W    AA    RRRRR   N    N  II  N    N   GGGG   !!!           |
|           W    W   A  A   R    R  NN   N  II  NN   N  G    G  !!!           |
|           W    W  A    A  R    R  N N  N  II  N N  N  G       !!!           |
|           W WW W  AAAAAA  RRRRR   N  N N  II  N  N N  G  GGG   !            |
|           WW  WW  A    A  R   R   N   NN  II  N   NN  G    G                |
|           W    W  A    A  R    R  N    N  II  N    N   GGGG   !!!           |
|                                                                             |
|      ALGO=A and IALGO=5X tend to fail with the tetrahedron method           |
|      (e.g. Bloechls method ISMEAR=-5 is not variational)                    |
|      please switch to IMSEAR=0-n, except for DOS calculations               |
|      For DOS calculations use IALGO=53 after preconverging with ISMEAR>=0   |
|          I HOPE YOU KNOW, WHAT YOU ARE  DOING                               |
|                                                                             |
 ----------------------------------------------------------------------------- 

       N       E                     dE             d eps       ncg     rms          ort
 gam= 0.000 g(H,U,f)=  0.124E+00 0.157E-01 0.000E+00 ort(H,U,f) = 0.000E+00 0.000E+00 0.000E+00
SDA:   1    -0.240958847690E+04    0.54708E-01    0.00000E+00   480   0.140E+00 0.000E+00
 gam= 0.000 trial= 0.653  step= 0.587 mean= 0.653
 gam= 0.349 g(H,U,f)=  0.378E-01 0.110E-01 0.000E+00 ort(H,U,f) = 0.106E-01-0.976E-02 0.000E+00
CGA:   2    -0.240962943554E+04   -0.40959E-01   -0.41013E-01   480   0.488E-01 0.872E-03
 gam= 0.349 trial= 0.650  step= 0.576 mean= 0.650
 gam= 0.106 g(H,U,f)=  0.446E-02 0.713E-03 0.000E+00 ort(H,U,f) = 0.127E-02-0.750E-03 0.000E+00
CGA:   3    -0.240964354042E+04   -0.14105E-01   -0.14145E-01   480   0.517E-02 0.520E-03
 gam= 0.106 trial= 0.646  step= 0.681 mean= 0.646
 gam= 0.193 g(H,U,f)=  0.893E-03 0.105E-03 0.000E+00 ort(H,U,f) = 0.619E-04-0.597E-04 0.000E+00
CGA:   4    -0.240964532093E+04   -0.17805E-02   -0.17804E-02   480   0.998E-03 0.222E-05
 gam= 0.193 trial= 0.648  step= 0.754 mean= 0.648
 gam= 0.299 g(H,U,f)=  0.260E-03 0.386E-04 0.000E+00 ort(H,U,f) = 0.333E-04-0.330E-04 0.000E+00
CGA:   5    -0.240964569736E+04   -0.37643E-03   -0.37643E-03   480   0.299E-03 0.271E-06
 gam= 0.299 trial= 0.653  step= 0.701 mean= 0.653
 gam= 0.410 g(H,U,f)=  0.998E-04 0.225E-04 0.000E+00 ort(H,U,f) = 0.213E-04-0.211E-04 0.000E+00
CGA:   6    -0.240964580204E+04   -0.10468E-03   -0.10467E-03   480   0.122E-03 0.160E-06
 gam= 0.410 trial= 0.655  step= 0.716 mean= 0.655
 gam= 0.302 g(H,U,f)=  0.320E-04 0.500E-05 0.000E+00 ort(H,U,f) = 0.389E-05-0.404E-05 0.000E+00
CGA:   7    -0.240964584582E+04   -0.43780E-04   -0.43788E-04   480   0.370E-04-0.146E-06
 gam= 0.302 trial= 0.658  step= 0.773 mean= 0.658
 gam= 0.300 g(H,U,f)=  0.985E-05 0.125E-05 0.000E+00 ort(H,U,f) = 0.705E-06-0.979E-06 0.000E+00
CGA:   8    -0.240964586008E+04   -0.14252E-04   -0.14268E-04   480   0.111E-04-0.274E-06
 gam= 0.300 trial= 0.664  step= 0.774 mean= 0.664
 gam= 0.338 g(H,U,f)=  0.338E-05 0.378E-06 0.000E+00 ort(H,U,f) = 0.505E-06-0.437E-06 0.000E+00
CGA:   9    -0.240964586435E+04   -0.42698E-05   -0.42661E-05   480   0.375E-05 0.678E-07
 gam= 0.338 trial= 0.670  step= 0.865 mean= 0.670
   7 F= -.24096459E+04 E0= -.24096459E+04  d E =-.187972E-01  mag=     2.0000
 curvature:  -0.41 expect dE=-0.104E-01 dE for cont linesearch -0.691E-07
 trial: gam= 0.40947 g(F)=  0.252E-01 g(S)=  0.000E+00 ort =-0.118E-03 (trialstep = 0.790E+00)
 search vector abs. value=  0.392E-01
 bond charge predicted
 writing wavefunctions

 ----------------------------------------------------------------------------- 
|                                                                             |
|           W    W    AA    RRRRR   N    N  II  N    N   GGGG   !!!           |
|           W    W   A  A   R    R  NN   N  II  NN   N  G    G  !!!           |
|           W    W  A    A  R    R  N N  N  II  N N  N  G       !!!           |
|           W WW W  AAAAAA  RRRRR   N  N N  II  N  N N  G  GGG   !            |
|           WW  WW  A    A  R   R   N   NN  II  N   NN  G    G                |
|           W    W  A    A  R    R  N    N  II  N    N   GGGG   !!!           |
|                                                                             |
|      ALGO=A and IALGO=5X tend to fail with the tetrahedron method           |
|      (e.g. Bloechls method ISMEAR=-5 is not variational)                    |
|      please switch to IMSEAR=0-n, except for DOS calculations               |
|      For DOS calculations use IALGO=53 after preconverging with ISMEAR>=0   |
|          I HOPE YOU KNOW, WHAT YOU ARE  DOING                               |
|                                                                             |
 ----------------------------------------------------------------------------- 

       N       E                     dE             d eps       ncg     rms          ort
 gam= 0.000 g(H,U,f)=  0.644E+00 0.778E-01 0.000E+00 ort(H,U,f) = 0.000E+00 0.000E+00 0.000E+00
SDA:   1    -0.240934896257E+04    0.29690E+00    0.00000E+00   480   0.722E+00 0.000E+00
 gam= 0.000 trial= 0.679  step= 0.591 mean= 0.679
 gam= 0.379 g(H,U,f)=  0.210E+00 0.635E-01 0.000E+00 ort(H,U,f) = 0.616E-01-0.507E-01 0.000E+00
CGA:   2    -0.240956165408E+04   -0.21269E+00   -0.21350E+00   480   0.274E+00 0.110E-01
 gam= 0.379 trial= 0.675  step= 0.569 mean= 0.675
 gam= 0.099 g(H,U,f)=  0.234E-01 0.365E-02 0.000E+00 ort(H,U,f) = 0.136E-01-0.184E-02 0.000E+00
CGA:   3    -0.240963951663E+04   -0.77863E-01   -0.78998E-01   480   0.270E-01 0.118E-01
 gam= 0.099 trial= 0.670  step= 0.715 mean= 0.670
 gam= 0.247 g(H,U,f)=  0.584E-02 0.837E-03 0.000E+00 ort(H,U,f) = 0.157E-03-0.255E-03 0.000E+00
CGA:   4    -0.240964959253E+04   -0.10076E-01   -0.10078E-01   480   0.668E-02-0.975E-04
 gam= 0.247 trial= 0.672  step= 0.689 mean= 0.672
 gam= 0.289 g(H,U,f)=  0.171E-02 0.227E-03 0.000E+00 ort(H,U,f) = 0.191E-03-0.189E-03 0.000E+00
CGA:   5    -0.240965188419E+04   -0.22917E-02   -0.22916E-02   480   0.193E-02 0.198E-05
 gam= 0.289 trial= 0.673  step= 0.681 mean= 0.673
 gam= 0.439 g(H,U,f)=  0.706E-03 0.143E-03 0.000E+00 ort(H,U,f) = 0.127E-03-0.125E-03 0.000E+00
CGA:   6    -0.240965254280E+04   -0.65861E-03   -0.65860E-03   480   0.850E-03 0.142E-05
 gam= 0.439 trial= 0.673  step= 0.648 mean= 0.673
 gam= 0.264 g(H,U,f)=  0.199E-03 0.253E-04 0.000E+00 ort(H,U,f) = 0.129E-04-0.135E-04 0.000E+00
CGA:   7    -0.240965281841E+04   -0.27561E-03   -0.27558E-03   480   0.225E-03-0.653E-06
 gam= 0.264 trial= 0.672  step= 0.812 mean= 0.672
 gam= 0.271 g(H,U,f)=  0.566E-04 0.429E-05 0.000E+00 ort(H,U,f) =-0.814E-06-0.210E-06 0.000E+00
CGA:   8    -0.240965290945E+04   -0.91039E-04   -0.91106E-04   480   0.609E-04-0.102E-05
 gam= 0.271 trial= 0.679  step= 0.787 mean= 0.679
 gam= 0.379 g(H,U,f)=  0.199E-04 0.319E-05 0.000E+00 ort(H,U,f) = 0.226E-05-0.235E-05 0.000E+00
CGA:   9    -0.240965293330E+04   -0.23857E-04   -0.23862E-04   480   0.231E-04-0.936E-07
 gam= 0.379 trial= 0.684  step= 0.695 mean= 0.684
 gam= 0.406 g(H,U,f)=  0.786E-05 0.151E-05 0.000E+00 ort(H,U,f) = 0.139E-05-0.125E-05 0.000E+00
CGA:  10    -0.240965294131E+04   -0.80070E-05   -0.80062E-05   480   0.937E-05 0.143E-06
 gam= 0.406 trial= 0.685  step= 0.755 mean= 0.685
   8 F= -.24096529E+04 E0= -.24096529E+04  d E =-.707696E-02  mag=     2.0000
 trial-energy change:   -0.007077  1 .order   -0.007105   -0.019855    0.005646
 step:   0.6152(harm=  0.6152)  dis= 0.00470  next Energy= -2409.653594 (dE=-0.773E-02)
 bond charge predicted
 writing wavefunctions

 ----------------------------------------------------------------------------- 
|                                                                             |
|           W    W    AA    RRRRR   N    N  II  N    N   GGGG   !!!           |
|           W    W   A  A   R    R  NN   N  II  NN   N  G    G  !!!           |
|           W    W  A    A  R    R  N N  N  II  N N  N  G       !!!           |
|           W WW W  AAAAAA  RRRRR   N  N N  II  N  N N  G  GGG   !            |
|           WW  WW  A    A  R   R   N   NN  II  N   NN  G    G                |
|           W    W  A    A  R    R  N    N  II  N    N   GGGG   !!!           |
|                                                                             |
|      ALGO=A and IALGO=5X tend to fail with the tetrahedron method           |
|      (e.g. Bloechls method ISMEAR=-5 is not variational)                    |
|      please switch to IMSEAR=0-n, except for DOS calculations               |
|      For DOS calculations use IALGO=53 after preconverging with ISMEAR>=0   |
|          I HOPE YOU KNOW, WHAT YOU ARE  DOING                               |
|                                                                             |
 ----------------------------------------------------------------------------- 

       N       E                     dE             d eps       ncg     rms          ort
 gam= 0.000 g(H,U,f)=  0.310E-01 0.380E-02 0.000E+00 ort(H,U,f) = 0.000E+00 0.000E+00 0.000E+00
SDA:   1    -0.240963866852E+04    0.14265E-01    0.00000E+00   480   0.348E-01 0.000E+00
 gam= 0.000 trial= 0.688  step= 0.601 mean= 0.688
 gam= 0.377 g(H,U,f)=  0.101E-01 0.307E-02 0.000E+00 ort(H,U,f) = 0.274E-02-0.261E-02 0.000E+00
CGA:   2    -0.240964912234E+04   -0.10454E-01   -0.10464E-01   480   0.131E-01 0.124E-03
 gam= 0.377 trial= 0.684  step= 0.591 mean= 0.684
 gam= 0.091 g(H,U,f)=  0.106E-02 0.135E-03 0.000E+00 ort(H,U,f) = 0.240E-03-0.152E-03 0.000E+00
CGA:   3    -0.240965300655E+04   -0.38842E-02   -0.38930E-02   480   0.120E-02 0.883E-04
 gam= 0.091 trial= 0.679  step= 0.703 mean= 0.679
 gam= 0.231 g(H,U,f)=  0.248E-03 0.272E-04 0.000E+00 ort(H,U,f) = 0.241E-04-0.239E-04 0.000E+00
CGA:   4    -0.240965342944E+04   -0.42289E-03   -0.42288E-03   480   0.276E-03 0.151E-06
 gam= 0.231 trial= 0.681  step= 0.771 mean= 0.681
 gam= 0.273 g(H,U,f)=  0.673E-04 0.803E-05 0.000E+00 ort(H,U,f) = 0.766E-05-0.769E-05 0.000E+00
CGA:   5    -0.240965353574E+04   -0.10631E-03   -0.10631E-03   480   0.754E-04-0.288E-07
 gam= 0.273 trial= 0.685  step= 0.765 mean= 0.685
 gam= 0.452 g(H,U,f)=  0.266E-04 0.745E-05 0.000E+00 ort(H,U,f) = 0.520E-05-0.539E-05 0.000E+00
CGA:   6    -0.240965356457E+04   -0.28826E-04   -0.28832E-04   480   0.341E-04-0.185E-06
 gam= 0.452 trial= 0.689  step= 0.654 mean= 0.689
 gam= 0.285 g(H,U,f)=  0.857E-05 0.112E-05 0.000E+00 ort(H,U,f) = 0.133E-05-0.128E-05 0.000E+00
CGA:   7    -0.240965357568E+04   -0.11113E-04   -0.11114E-04   480   0.969E-05 0.520E-07
 gam= 0.285 trial= 0.687  step= 0.826 mean= 0.687
 gam= 0.285 g(H,U,f)=  0.261E-05 0.151E-06 0.000E+00 ort(H,U,f) = 0.141E-06-0.175E-06 0.000E+00
CGA:   8    -0.240965357969E+04   -0.40070E-05   -0.40093E-05   480   0.276E-05-0.340E-07
 gam= 0.285 trial= 0.694  step= 0.916 mean= 0.694
   9 F= -.24096536E+04 E0= -.24096536E+04  d E =-.771534E-02  mag=     2.0000
 curvature:  -0.48 expect dE=-0.439E-02 dE for cont linesearch -0.665E-08
 trial: gam= 0.36230 g(F)=  0.915E-02 g(S)=  0.000E+00 ort = 0.233E-04 (trialstep = 0.755E+00)
 search vector abs. value=  0.143E-01
 bond charge predicted
 writing wavefunctions

 ----------------------------------------------------------------------------- 
|                                                                             |
|           W    W    AA    RRRRR   N    N  II  N    N   GGGG   !!!           |
|           W    W   A  A   R    R  NN   N  II  NN   N  G    G  !!!           |
|           W    W  A    A  R    R  N N  N  II  N N  N  G       !!!           |
|           W WW W  AAAAAA  RRRRR   N  N N  II  N  N N  G  GGG   !            |
|           WW  WW  A    A  R   R   N   NN  II  N   NN  G    G                |
|           W    W  A    A  R    R  N    N  II  N    N   GGGG   !!!           |
|                                                                             |
|      ALGO=A and IALGO=5X tend to fail with the tetrahedron method           |
|      (e.g. Bloechls method ISMEAR=-5 is not variational)                    |
|      please switch to IMSEAR=0-n, except for DOS calculations               |
|      For DOS calculations use IALGO=53 after preconverging with ISMEAR>=0   |
|          I HOPE YOU KNOW, WHAT YOU ARE  DOING                               |
|                                                                             |
 ----------------------------------------------------------------------------- 

       N       E                     dE             d eps       ncg     rms          ort
 gam= 0.000 g(H,U,f)=  0.198E+00 0.191E-01 0.000E+00 ort(H,U,f) = 0.000E+00 0.000E+00 0.000E+00
SDA:   1    -0.240955873995E+04    0.94836E-01    0.00000E+00   480   0.217E+00 0.000E+00
 gam= 0.000 trial= 0.705  step= 0.662 mean= 0.705
 gam= 0.388 g(H,U,f)=  0.636E-01 0.204E-01 0.000E+00 ort(H,U,f) = 0.147E-01-0.141E-01 0.000E+00
CGA:   2    -0.240963040376E+04   -0.71664E-01   -0.71680E-01   480   0.840E-01 0.627E-03
 gam= 0.388 trial= 0.703  step= 0.527 mean= 0.703
 gam= 0.104 g(H,U,f)=  0.762E-02 0.112E-02 0.000E+00 ort(H,U,f) = 0.360E-02-0.129E-02 0.000E+00
CGA:   3    -0.240965213397E+04   -0.21730E-01   -0.22194E-01   480   0.874E-02 0.231E-02
 gam= 0.104 trial= 0.694  step= 0.741 mean= 0.694
 gam= 0.216 g(H,U,f)=  0.171E-02 0.176E-03 0.000E+00 ort(H,U,f) = 0.740E-04-0.856E-04 0.000E+00
CGA:   4    -0.240965546209E+04   -0.33281E-02   -0.33284E-02   480   0.189E-02-0.117E-04
 gam= 0.216 trial= 0.697  step= 0.770 mean= 0.697
 gam= 0.267 g(H,U,f)=  0.461E-03 0.436E-04 0.000E+00 ort(H,U,f) = 0.463E-04-0.497E-04 0.000E+00
CGA:   5    -0.240965618825E+04   -0.72616E-03   -0.72634E-03   480   0.505E-03-0.339E-05
 gam= 0.267 trial= 0.700  step= 0.776 mean= 0.700
 gam= 0.415 g(H,U,f)=  0.172E-03 0.370E-04 0.000E+00 ort(H,U,f) = 0.260E-04-0.255E-04 0.000E+00
CGA:   6    -0.240965638380E+04   -0.19555E-03   -0.19551E-03   480   0.209E-03 0.447E-06
 gam= 0.415 trial= 0.704  step= 0.657 mean= 0.704
 gam= 0.311 g(H,U,f)=  0.557E-04 0.938E-05 0.000E+00 ort(H,U,f) = 0.718E-05-0.735E-05 0.000E+00
CGA:   7    -0.240965645272E+04   -0.68917E-04   -0.68908E-04   480   0.651E-04-0.177E-06
 gam= 0.311 trial= 0.702  step= 0.726 mean= 0.702
 gam= 0.282 g(H,U,f)=  0.166E-04 0.179E-05 0.000E+00 ort(H,U,f) = 0.136E-05-0.156E-05 0.000E+00
CGA:   8    -0.240965647633E+04   -0.23612E-04   -0.23615E-04   480   0.184E-04-0.205E-06
 gam= 0.282 trial= 0.703  step= 0.788 mean= 0.703
 gam= 0.355 g(H,U,f)=  0.580E-05 0.727E-06 0.000E+00 ort(H,U,f) = 0.812E-06-0.727E-06 0.000E+00
CGA:   9    -0.240965648355E+04   -0.72230E-05   -0.72195E-05   480   0.652E-05 0.849E-07
 gam= 0.355 trial= 0.707  step= 0.806 mean= 0.707
  10 F= -.24096565E+04 E0= -.24096565E+04  d E =-.290386E-02  mag=     2.0000
 trial-energy change:   -0.002904  1 .order   -0.002931   -0.006919    0.001058
 step:   0.6551(harm=  0.6551)  dis= 0.00231  next Energy= -2409.656580 (dE=-0.300E-02)
 bond charge predicted
 writing wavefunctions

 ----------------------------------------------------------------------------- 
|                                                                             |
|           W    W    AA    RRRRR   N    N  II  N    N   GGGG   !!!           |
|           W    W   A  A   R    R  NN   N  II  NN   N  G    G  !!!           |
|           W    W  A    A  R    R  N N  N  II  N N  N  G       !!!           |
|           W WW W  AAAAAA  RRRRR   N  N N  II  N  N N  G  GGG   !            |
|           WW  WW  A    A  R   R   N   NN  II  N   NN  G    G                |
|           W    W  A    A  R    R  N    N  II  N    N   GGGG   !!!           |
|                                                                             |
|      ALGO=A and IALGO=5X tend to fail with the tetrahedron method           |
|      (e.g. Bloechls method ISMEAR=-5 is not variational)                    |
|      please switch to IMSEAR=0-n, except for DOS calculations               |
|      For DOS calculations use IALGO=53 after preconverging with ISMEAR>=0   |
|          I HOPE YOU KNOW, WHAT YOU ARE  DOING                               |
|                                                                             |
 ----------------------------------------------------------------------------- 

       N       E                     dE             d eps       ncg     rms          ort
 gam= 0.000 g(H,U,f)=  0.337E-02 0.347E-03 0.000E+00 ort(H,U,f) = 0.000E+00 0.000E+00 0.000E+00
SDA:   1    -0.240965483685E+04    0.16395E-02    0.00000E+00   480   0.372E-02 0.000E+00
 gam= 0.000 trial= 0.712  step= 0.674 mean= 0.712
 gam= 0.396 g(H,U,f)=  0.112E-02 0.359E-03 0.000E+00 ort(H,U,f) = 0.264E-03-0.261E-03 0.000E+00
CGA:   2    -0.240965608919E+04   -0.12523E-02   -0.12525E-02   480   0.147E-02 0.352E-05
 gam= 0.396 trial= 0.710  step= 0.547 mean= 0.710
 gam= 0.099 g(H,U,f)=  0.130E-03 0.156E-04 0.000E+00 ort(H,U,f) = 0.274E-04-0.242E-04 0.000E+00
CGA:   3    -0.240965649231E+04   -0.40312E-03   -0.40372E-03   480   0.145E-03 0.314E-05
 gam= 0.099 trial= 0.702  step= 0.730 mean= 0.702
 gam= 0.207 g(H,U,f)=  0.276E-04 0.249E-05 0.000E+00 ort(H,U,f) = 0.239E-05-0.269E-05 0.000E+00
CGA:   4    -0.240965654552E+04   -0.53209E-04   -0.53213E-04   480   0.301E-04-0.308E-06
 gam= 0.207 trial= 0.704  step= 0.831 mean= 0.704
 gam= 0.267 g(H,U,f)=  0.739E-05 0.650E-06 0.000E+00 ort(H,U,f) = 0.916E-06-0.855E-06 0.000E+00
CGA:   5    -0.240965655798E+04   -0.12460E-04   -0.12456E-04   480   0.804E-05 0.602E-07
 gam= 0.267 trial= 0.710  step= 0.863 mean= 0.710
 gam= 0.358 g(H,U,f)=  0.252E-05 0.352E-06 0.000E+00 ort(H,U,f) = 0.269E-06-0.261E-06 0.000E+00
CGA:   6    -0.240965656146E+04   -0.34746E-05   -0.34739E-05   480   0.288E-05 0.811E-08
 gam= 0.358 trial= 0.718  step= 0.770 mean= 0.718
  11 F= -.24096566E+04 E0= -.24096566E+04  d E =-.298177E-02  mag=     2.0000
 curvature:  -0.51 expect dE=-0.149E-02 dE for cont linesearch -0.214E-07
 trial: gam= 0.31768 g(F)=  0.291E-02 g(S)=  0.000E+00 ort =-0.245E-04 (trialstep = 0.735E+00)
 search vector abs. value=  0.434E-02
 bond charge predicted
 writing wavefunctions

 ----------------------------------------------------------------------------- 
|                                                                             |
|           W    W    AA    RRRRR   N    N  II  N    N   GGGG   !!!           |
|           W    W   A  A   R    R  NN   N  II  NN   N  G    G  !!!           |
|           W    W  A    A  R    R  N N  N  II  N N  N  G       !!!           |
|           W WW W  AAAAAA  RRRRR   N  N N  II  N  N N  G  GGG   !            |
|           WW  WW  A    A  R   R   N   NN  II  N   NN  G    G                |
|           W    W  A    A  R    R  N    N  II  N    N   GGGG   !!!           |
|                                                                             |
|      ALGO=A and IALGO=5X tend to fail with the tetrahedron method           |
|      (e.g. Bloechls method ISMEAR=-5 is not variational)                    |
|      please switch to IMSEAR=0-n, except for DOS calculations               |
|      For DOS calculations use IALGO=53 after preconverging with ISMEAR>=0   |
|          I HOPE YOU KNOW, WHAT YOU ARE  DOING                               |
|                                                                             |
 ----------------------------------------------------------------------------- 

       N       E                     dE             d eps       ncg     rms          ort
 gam= 0.000 g(H,U,f)=  0.535E-01 0.376E-02 0.000E+00 ort(H,U,f) = 0.000E+00 0.000E+00 0.000E+00
SDA:   1    -0.240962947448E+04    0.27084E-01    0.00000E+00   480   0.572E-01 0.000E+00
 gam= 0.000 trial= 0.720  step= 0.785 mean= 0.720
 gam= 0.279 g(H,U,f)=  0.129E-01 0.302E-02 0.000E+00 ort(H,U,f) = 0.222E-02-0.221E-02 0.000E+00
CGA:   2    -0.240965192630E+04   -0.22452E-01   -0.22450E-01   480   0.159E-01 0.485E-05
 gam= 0.279 trial= 0.723  step= 0.551 mean= 0.723
 gam= 0.142 g(H,U,f)=  0.190E-02 0.369E-03 0.000E+00 ort(H,U,f) = 0.582E-03-0.410E-03 0.000E+00
CGA:   3    -0.240965628829E+04   -0.43620E-02   -0.43906E-02   480   0.227E-02 0.172E-03
 gam= 0.142 trial= 0.715  step= 0.587 mean= 0.715
 gam= 0.251 g(H,U,f)=  0.500E-03 0.701E-04 0.000E+00 ort(H,U,f) = 0.804E-04-0.782E-04 0.000E+00
CGA:   4    -0.240965696170E+04   -0.67341E-03   -0.67391E-03   480   0.570E-03 0.215E-05
 gam= 0.251 trial= 0.708  step= 0.718 mean= 0.708
 gam= 0.244 g(H,U,f)=  0.130E-03 0.946E-05 0.000E+00 ort(H,U,f) = 0.142E-04-0.143E-04 0.000E+00
CGA:   5    -0.240965716652E+04   -0.20482E-03   -0.20482E-03   480   0.139E-03-0.153E-06
 gam= 0.244 trial= 0.709  step= 0.866 mean= 0.709
 gam= 0.365 g(H,U,f)=  0.445E-04 0.631E-05 0.000E+00 ort(H,U,f) = 0.426E-05-0.435E-05 0.000E+00
CGA:   6    -0.240965722674E+04   -0.60221E-04   -0.60222E-04   480   0.508E-04-0.911E-07
 gam= 0.365 trial= 0.717  step= 0.711 mean= 0.717
 gam= 0.349 g(H,U,f)=  0.150E-04 0.272E-05 0.000E+00 ort(H,U,f) = 0.212E-05-0.207E-05 0.000E+00
CGA:   7    -0.240965724480E+04   -0.18062E-04   -0.18062E-04   480   0.178E-04 0.549E-07
 gam= 0.349 trial= 0.716  step= 0.666 mean= 0.716
 gam= 0.296 g(H,U,f)=  0.467E-05 0.582E-06 0.000E+00 ort(H,U,f) = 0.567E-06-0.600E-06 0.000E+00
CGA:   8    -0.240965725072E+04   -0.59186E-05   -0.59179E-05   480   0.525E-05-0.326E-07
 gam= 0.296 trial= 0.714  step= 0.762 mean= 0.714
  12 F= -.24096573E+04 E0= -.24096573E+04  d E =-.689264E-03  mag=     2.0000
 trial-energy change:   -0.000689  1 .order   -0.000690   -0.002131    0.000751
 step:   0.5436(harm=  0.5436)  dis= 0.00099  next Energy= -2409.657349 (dE=-0.788E-03)
 bond charge predicted
 writing wavefunctions

 ----------------------------------------------------------------------------- 
|                                                                             |
|           W    W    AA    RRRRR   N    N  II  N    N   GGGG   !!!           |
|           W    W   A  A   R    R  NN   N  II  NN   N  G    G  !!!           |
|           W    W  A    A  R    R  N N  N  II  N N  N  G       !!!           |
|           W WW W  AAAAAA  RRRRR   N  N N  II  N  N N  G  GGG   !            |
|           WW  WW  A    A  R   R   N   NN  II  N   NN  G    G                |
|           W    W  A    A  R    R  N    N  II  N    N   GGGG   !!!           |
|                                                                             |
|      ALGO=A and IALGO=5X tend to fail with the tetrahedron method           |
|      (e.g. Bloechls method ISMEAR=-5 is not variational)                    |
|      please switch to IMSEAR=0-n, except for DOS calculations               |
|      For DOS calculations use IALGO=53 after preconverging with ISMEAR>=0   |
|          I HOPE YOU KNOW, WHAT YOU ARE  DOING                               |
|                                                                             |
 ----------------------------------------------------------------------------- 

       N       E                     dE             d eps       ncg     rms          ort
 gam= 0.000 g(H,U,f)=  0.356E-02 0.258E-03 0.000E+00 ort(H,U,f) = 0.000E+00 0.000E+00 0.000E+00
SDA:   1    -0.240965546410E+04    0.17807E-02    0.00000E+00   480   0.382E-02 0.000E+00
 gam= 0.000 trial= 0.716  step= 0.794 mean= 0.716
 gam= 0.283 g(H,U,f)=  0.879E-03 0.201E-03 0.000E+00 ort(H,U,f) = 0.149E-03-0.151E-03 0.000E+00
CGA:   2    -0.240965698055E+04   -0.15165E-02   -0.15165E-02   480   0.108E-02-0.160E-05
 gam= 0.283 trial= 0.720  step= 0.561 mean= 0.720
 gam= 0.140 g(H,U,f)=  0.127E-03 0.248E-04 0.000E+00 ort(H,U,f) = 0.291E-04-0.288E-04 0.000E+00
CGA:   3    -0.240965728315E+04   -0.30260E-03   -0.30275E-03   480   0.152E-03 0.241E-06
 gam= 0.140 trial= 0.712  step= 0.605 mean= 0.712
 gam= 0.245 g(H,U,f)=  0.322E-04 0.494E-05 0.000E+00 ort(H,U,f) = 0.604E-05-0.615E-05 0.000E+00
CGA:   4    -0.240965732900E+04   -0.45849E-04   -0.45844E-04   480   0.371E-04-0.110E-06
 gam= 0.245 trial= 0.707  step= 0.752 mean= 0.707
 gam= 0.241 g(H,U,f)=  0.830E-05 0.650E-06 0.000E+00 ort(H,U,f) = 0.111E-05-0.109E-05 0.000E+00
CGA:   5    -0.240965734293E+04   -0.13931E-04   -0.13931E-04   480   0.895E-05 0.188E-07
 gam= 0.241 trial= 0.709  step= 0.913 mean= 0.709
 gam= 0.330 g(H,U,f)=  0.266E-05 0.293E-06 0.000E+00 ort(H,U,f) = 0.231E-06-0.224E-06 0.000E+00
CGA:   6    -0.240965734701E+04   -0.40848E-05   -0.40840E-05   480   0.296E-05 0.662E-08
 gam= 0.330 trial= 0.719  step= 0.832 mean= 0.719
  13 F= -.24096573E+04 E0= -.24096573E+04  d E =-.785555E-03  mag=     2.0000
 curvature:  -0.41 expect dE=-0.282E-03 dE for cont linesearch -0.789E-07
 trial: gam= 0.22309 g(F)=  0.693E-03 g(S)=  0.000E+00 ort = 0.290E-04 (trialstep = 0.697E+00)
 search vector abs. value=  0.921E-03
 bond charge predicted
 writing wavefunctions

 ----------------------------------------------------------------------------- 
|                                                                             |
|           W    W    AA    RRRRR   N    N  II  N    N   GGGG   !!!           |
|           W    W   A  A   R    R  NN   N  II  NN   N  G    G  !!!           |
|           W    W  A    A  R    R  N N  N  II  N N  N  G       !!!           |
|           W WW W  AAAAAA  RRRRR   N  N N  II  N  N N  G  GGG   !            |
|           WW  WW  A    A  R   R   N   NN  II  N   NN  G    G                |
|           W    W  A    A  R    R  N    N  II  N    N   GGGG   !!!           |
|                                                                             |
|      ALGO=A and IALGO=5X tend to fail with the tetrahedron method           |
|      (e.g. Bloechls method ISMEAR=-5 is not variational)                    |
|      please switch to IMSEAR=0-n, except for DOS calculations               |
|      For DOS calculations use IALGO=53 after preconverging with ISMEAR>=0   |
|          I HOPE YOU KNOW, WHAT YOU ARE  DOING                               |
|                                                                             |
 ----------------------------------------------------------------------------- 

       N       E                     dE             d eps       ncg     rms          ort
 gam= 0.000 g(H,U,f)=  0.105E-01 0.785E-03 0.000E+00 ort(H,U,f) = 0.000E+00 0.000E+00 0.000E+00
SDA:   1    -0.240965214772E+04    0.51952E-02    0.00000E+00   480   0.113E-01 0.000E+00
 gam= 0.000 trial= 0.725  step= 0.753 mean= 0.725
 gam= 0.326 g(H,U,f)=  0.283E-02 0.856E-03 0.000E+00 ort(H,U,f) = 0.528E-03-0.530E-03 0.000E+00
CGA:   2    -0.240965640359E+04   -0.42559E-02   -0.42559E-02   480   0.369E-02-0.147E-05
 gam= 0.326 trial= 0.726  step= 0.502 mean= 0.726
 gam= 0.141 g(H,U,f)=  0.443E-03 0.792E-04 0.000E+00 ort(H,U,f) = 0.135E-03-0.125E-03 0.000E+00
CGA:   3    -0.240965732495E+04   -0.92136E-03   -0.92515E-03   480   0.522E-03 0.973E-05
 gam= 0.141 trial= 0.715  step= 0.629 mean= 0.715
 gam= 0.197 g(H,U,f)=  0.912E-04 0.115E-04 0.000E+00 ort(H,U,f) = 0.112E-04-0.117E-04 0.000E+00
CGA:   4    -0.240965748964E+04   -0.16469E-03   -0.16467E-03   480   0.103E-03-0.432E-06
 gam= 0.197 trial= 0.711  step= 0.759 mean= 0.711
 gam= 0.286 g(H,U,f)=  0.261E-04 0.324E-05 0.000E+00 ort(H,U,f) = 0.356E-05-0.346E-05 0.000E+00
CGA:   5    -0.240965752860E+04   -0.38965E-04   -0.38963E-04   480   0.293E-04 0.102E-06
 gam= 0.286 trial= 0.713  step= 0.755 mean= 0.713
 gam= 0.402 g(H,U,f)=  0.987E-05 0.194E-05 0.000E+00 ort(H,U,f) = 0.162E-05-0.163E-05 0.000E+00
CGA:   6    -0.240965753969E+04   -0.11085E-04   -0.11085E-04   480   0.118E-04-0.514E-08
 gam= 0.402 trial= 0.715  step= 0.695 mean= 0.715
 gam= 0.311 g(H,U,f)=  0.320E-05 0.480E-06 0.000E+00 ort(H,U,f) = 0.437E-06-0.430E-06 0.000E+00
CGA:   7    -0.240965754379E+04   -0.40997E-05   -0.40997E-05   480   0.368E-05 0.693E-08
 gam= 0.311 trial= 0.714  step= 0.742 mean= 0.714
  14 F= -.24096575E+04 E0= -.24096575E+04  d E =-.196777E-03  mag=     2.0000
 trial-energy change:   -0.000197  1 .order   -0.000196   -0.000487    0.000095
 step:   0.5827(harm=  0.5827)  dis= 0.00047  next Energy= -2409.657551 (dE=-0.204E-03)
 bond charge predicted
 writing wavefunctions

 ----------------------------------------------------------------------------- 
|                                                                             |
|           W    W    AA    RRRRR   N    N  II  N    N   GGGG   !!!           |
|           W    W   A  A   R    R  NN   N  II  NN   N  G    G  !!!           |
|           W    W  A    A  R    R  N N  N  II  N N  N  G       !!!           |
|           W WW W  AAAAAA  RRRRR   N  N N  II  N  N N  G  GGG   !            |
|           WW  WW  A    A  R   R   N   NN  II  N   NN  G    G                |
|           W    W  A    A  R    R  N    N  II  N    N   GGGG   !!!           |
|                                                                             |
|      ALGO=A and IALGO=5X tend to fail with the tetrahedron method           |
|      (e.g. Bloechls method ISMEAR=-5 is not variational)                    |
|      please switch to IMSEAR=0-n, except for DOS calculations               |
|      For DOS calculations use IALGO=53 after preconverging with ISMEAR>=0   |
|          I HOPE YOU KNOW, WHAT YOU ARE  DOING                               |
|                                                                             |
 ----------------------------------------------------------------------------- 

       N       E                     dE             d eps       ncg     rms          ort
 gam= 0.000 g(H,U,f)=  0.274E-03 0.211E-04 0.000E+00 ort(H,U,f) = 0.000E+00 0.000E+00 0.000E+00
SDA:   1    -0.240965740763E+04    0.13206E-03    0.00000E+00   480   0.295E-03 0.000E+00
 gam= 0.000 trial= 0.716  step= 0.768 mean= 0.716
 gam= 0.332 g(H,U,f)=  0.745E-04 0.237E-04 0.000E+00 ort(H,U,f) = 0.149E-04-0.148E-04 0.000E+00
CGA:   2    -0.240965752103E+04   -0.11341E-03   -0.11340E-03   480   0.981E-04 0.161E-06
 gam= 0.332 trial= 0.718  step= 0.515 mean= 0.718
 gam= 0.140 g(H,U,f)=  0.115E-04 0.216E-05 0.000E+00 ort(H,U,f) = 0.336E-05-0.346E-05 0.000E+00
CGA:   3    -0.240965754631E+04   -0.25284E-04   -0.25277E-04   480   0.137E-04-0.102E-06
 gam= 0.140 trial= 0.708  step= 0.638 mean= 0.708
 gam= 0.203 g(H,U,f)=  0.243E-05 0.356E-06 0.000E+00 ort(H,U,f) = 0.406E-06-0.364E-06 0.000E+00
CGA:   4    -0.240965755068E+04   -0.43650E-05   -0.43666E-05   480   0.279E-05 0.421E-07
 gam= 0.203 trial= 0.705  step= 0.747 mean= 0.705
  15 F= -.24096576E+04 E0= -.24096576E+04  d E =-.203668E-03  mag=     2.0000
 curvature:  -0.38 expect dE=-0.896E-04 dE for cont linesearch -0.859E-07
 trial: gam= 0.32346 g(F)=  0.233E-03 g(S)=  0.000E+00 ort = 0.144E-04 (trialstep = 0.674E+00)
 search vector abs. value=  0.339E-03
 reached required accuracy - stopping structural energy minimisation
 writing wavefunctions
