 vasp.5.4.4.18Apr17-6-g9f103f2a35 (build Jun 14 2024 12:30:39) gamma-only        
 executed on NVIDIA22.7_CrayMPICH date 2025.02.13  20:12:20
 running on  512 total cores
 distrk:  each k-point on  512 cores,    1 groups
 distr:  one band on NCORES_PER_BAND=  16 cores,   32 groups


--------------------------------------------------------------------------------------------------------


 INCAR:
 POTCAR:   PAW_PBE Si 05Jan2001                   
 POTCAR:   PAW_PBE C 08Apr2002                    
 POTCAR:   PAW_PBE Si 05Jan2001                   
   VRHFIN =Si: s2p2                                                             
   LEXCH  = PE                                                                  
   EATOM  =   103.0669 eV,    7.5752 Ry                                         
                                                                                
   TITEL  = PAW_PBE Si 05Jan2001                                                
   LULTRA =        F    use ultrasoft PP ?                                      
   IUNSCR =        1    unscreen: 0-lin 1-nonlin 2-no                           
   RPACOR =    1.500    partial core radius                                     
   POMASS =   28.085; ZVAL   =    4.000    mass and valenz                      
   RCORE  =    1.900    outmost cutoff radius                                   
   RWIGS  =    2.480; RWIGS  =    1.312    wigner-seitz radius (au A)           
   ENMAX  =  245.345; ENMIN  =  184.009 eV                                      
   ICORE  =        2    local potential                                         
   LCOR   =        T    correct aug charges                                     
   LPAW   =        T    paw PP                                                  
   EAUG   =  322.069                                                            
   DEXC   =    -.007                                                            
   RMAX   =    2.944    core radius for proj-oper                               
   RAUG   =    1.300    factor for augmentation sphere                          
   RDEP   =    1.993    radius for radial grids                                 
   QCUT   =   -4.246; QGAM   =    8.493    optimization parameters              
                                                                                
   Description                                                                  
     l     E      TYP  RCUT    TYP  RCUT                                        
     0   .000     23  1.900                                                     
     0   .000     23  1.900                                                     
     1   .000     23  1.900                                                     
     1   .000     23  1.900                                                     
     2   .000      7  1.900                                                     
  local pseudopotential read in
  partial core-charges read in
  atomic valenz-charges read in
  non local Contribution for L=            0  read in
    real space projection operators read in
  non local Contribution for L=            0  read in
    real space projection operators read in
  non local Contribution for L=            1  read in
    real space projection operators read in
  non local Contribution for L=            1  read in
    real space projection operators read in
    PAW grid and wavefunctions read in
 
   number of l-projection  operators is LMAX  =            4
   number of lm-projection operators is LMMAX =            8
 
 POTCAR:   PAW_PBE C 08Apr2002                    
   VRHFIN =C: s2p2                                                              
   LEXCH  = PE                                                                  
   EATOM  =   147.1560 eV,   10.8157 Ry                                         
                                                                                
   TITEL  = PAW_PBE C 08Apr2002                                                 
   LULTRA =        F    use ultrasoft PP ?                                      
   IUNSCR =        0    unscreen: 0-lin 1-nonlin 2-no                           
   RPACOR =     .000    partial core radius                                     
   POMASS =   12.011; ZVAL   =    4.000    mass and valenz                      
   RCORE  =    1.500    outmost cutoff radius                                   
   RWIGS  =    1.630; RWIGS  =     .863    wigner-seitz radius (au A)           
   ENMAX  =  400.000; ENMIN  =  300.000 eV                                      
   ICORE  =        2    local potential                                         
   LCOR   =        T    correct aug charges                                     
   LPAW   =        T    paw PP                                                  
   EAUG   =  644.873                                                            
   DEXC   =     .000                                                            
   RMAX   =    2.266    core radius for proj-oper                               
   RAUG   =    1.300    factor for augmentation sphere                          
   RDEP   =    1.501    radius for radial grids                                 
   RDEPT  =    1.300    core radius for aug-charge                              
   QCUT   =   -5.516; QGAM   =   11.032    optimization parameters              
                                                                                
   Description                                                                  
     l     E      TYP  RCUT    TYP  RCUT                                        
     0   .000     23  1.200                                                     
     0   .000     23  1.200                                                     
     1   .000     23  1.500                                                     
     1  2.500     23  1.500                                                     
     2   .000      7  1.500                                                     
  local pseudopotential read in
  atomic valenz-charges read in
  non local Contribution for L=            0  read in
    real space projection operators read in
  non local Contribution for L=            0  read in
    real space projection operators read in
  non local Contribution for L=            1  read in
    real space projection operators read in
  non local Contribution for L=            1  read in
    real space projection operators read in
    PAW grid and wavefunctions read in
 
   number of l-projection  operators is LMAX  =            4
   number of lm-projection operators is LMMAX =            8
 
 Optimization of the real space projectors (new method)

 maximal supplied QI-value         = 19.84
 optimisation between [QCUT,QGAM] = [ 10.12, 20.44] = [ 28.68,116.96] Ry 
 Optimized for a Real-space Cutoff    1.38 Angstroem

   l    n(q)    QCUT    max X(q) W(low)/X(q) W(high)/X(q)  e(spline) 
   0      8    10.119     8.708    0.16E-04    0.67E-05    0.60E-08
   0      8    10.119   106.241    0.56E-04    0.11E-03    0.54E-07
   1      8    10.119     5.901    0.16E-04    0.16E-05    0.22E-07
   1      8    10.119    73.241    0.22E-03    0.17E-03    0.18E-06
 Optimization of the real space projectors (new method)

 maximal supplied QI-value         = 25.13
 optimisation between [QCUT,QGAM] = [ 10.05, 20.36] = [ 28.30,116.06] Ry 
 Optimized for a Real-space Cutoff    1.38 Angstroem

   l    n(q)    QCUT    max X(q) W(low)/X(q) W(high)/X(q)  e(spline) 
   0      8    10.053     5.582    0.33E-04    0.15E-04    0.75E-07
   0      8    10.053    69.432    0.23E-03    0.38E-03    0.25E-06
   1      8    10.053     2.780    0.76E-04    0.11E-03    0.15E-06
   1      8    10.053     4.549    0.19E-03    0.19E-03    0.27E-06
 PAW_PBE Si 05Jan2001                   :
 energy of atom  1       EATOM= -103.0669
 kinetic energy error for atom=    0.0012 (will be added to EATOM!!)
 PAW_PBE C 08Apr2002                    :
 energy of atom  2       EATOM= -147.1560
 kinetic energy error for atom=    0.0288 (will be added to EATOM!!)
 
 
 POSCAR: generated by phonopy                    
  positions in direct lattice
  velocities in cartesian coordinates
 exchange correlation table for  LEXCH =        8
   RHO(1)=    0.500       N(1)  =     2000
   RHO(2)=  100.500       N(2)  =     4000
 


--------------------------------------------------------------------------------------------------------


 ion  position               nearest neighbor table
   1  0.000  0.000  0.000-  26 1.98 189 1.98 136 1.98  75 1.98  82 1.98 117 1.98
   2  0.205  0.205  0.039- 189 1.54 139 1.54  91 1.54  40 1.56
   3  0.207  0.207  0.373-  41 1.53  92 1.54 140 1.54 190 1.55
   4  0.209  0.209  0.707-  42 1.53 191 1.54 141 1.54  93 1.54
   5  0.209  0.541  0.042-  94 1.53 192 1.54 142 1.54  43 1.54
   6  0.208  0.541  0.375-  95 1.53  44 1.53 143 1.54 193 1.54
   7  0.209  0.542  0.708-  45 1.54  96 1.54 144 1.54 194 1.54
   8  0.211  0.871  0.042- 136 1.51 195 1.52  97 1.53  37 1.55
   9  0.208  0.874  0.375- 196 1.53  38 1.54  98 1.54 137 1.54
  10  0.211  0.875  0.706- 138 1.53  39 1.53 197 1.53  99 1.54
  11  0.541  0.209  0.042- 148 1.53 198 1.54 100 1.54  49 1.54
  12  0.541  0.208  0.375- 149 1.53  50 1.53 101 1.54 199 1.54
  13  0.542  0.209  0.708-  51 1.54 150 1.54 102 1.54 200 1.54
  14  0.542  0.542  0.042- 103 1.53 151 1.53 201 1.54  52 1.54
  15  0.541  0.541  0.375- 104 1.54 152 1.54  53 1.54 202 1.54
  16  0.542  0.542  0.708- 153 1.53 105 1.53  54 1.54 203 1.54
  17  0.542  0.875  0.042- 145 1.53 204 1.54 106 1.54  46 1.54
  18  0.541  0.875  0.376-  47 1.53 146 1.53 205 1.54 107 1.54
  19  0.543  0.875  0.709- 147 1.53  48 1.53 108 1.54 206 1.54
  20  0.871  0.211  0.042-  82 1.51 207 1.52 157 1.53  31 1.55
  21  0.874  0.208  0.375- 208 1.53  32 1.54 158 1.54  83 1.54
  22  0.875  0.211  0.706-  84 1.53  33 1.53 209 1.53 159 1.54
  23  0.875  0.542  0.042-  85 1.53 210 1.54 160 1.54  34 1.54
  24  0.875  0.541  0.376-  35 1.53  86 1.53 211 1.54 161 1.54
  25  0.875  0.543  0.709-  87 1.53  36 1.53 162 1.54 212 1.54
  26  0.874  0.874  0.052-  88 1.51 154 1.51 213 1.54   1 1.98
  27  0.875  0.875  0.376-  29 1.53 214 1.54 155 1.54  89 1.54
  28  0.877  0.877  0.711-  30 1.53  90 1.54 156 1.54 215 1.55
  29  0.958  0.958  0.292- 163 1.53  27 1.53 115 1.55  73 1.55
  30  0.959  0.959  0.625- 164 1.53  28 1.53 116 1.54  74 1.54
  31  0.958  0.292  0.958- 165 1.53  78 1.53  20 1.55 111 1.55
  32  0.957  0.291  0.291-  21 1.54  76 1.54 166 1.54 109 1.56
  33  0.958  0.293  0.624-  22 1.53  77 1.53 167 1.54 110 1.54
  34  0.959  0.625  0.959- 168 1.53  81 1.53  23 1.54 114 1.54
  35  0.958  0.624  0.293-  79 1.53  24 1.53 169 1.54 112 1.54
  36  0.959  0.626  0.626-  25 1.53  80 1.53 170 1.54 113 1.54
  37  0.292  0.958  0.958- 171 1.53 126 1.53   8 1.55  57 1.55
  38  0.291  0.957  0.291-   9 1.54 124 1.54 172 1.54  55 1.56
  39  0.293  0.958  0.624-  10 1.53 125 1.53 173 1.54  56 1.54
  40  0.291  0.291  0.957-  60 1.54 120 1.54 174 1.54   2 1.56
  41  0.291  0.291  0.291-   3 1.53  58 1.53 118 1.53 175 1.54
  42  0.292  0.292  0.624-   4 1.53  59 1.53 119 1.53 176 1.54
  43  0.293  0.624  0.958-  63 1.53 123 1.53 177 1.54   5 1.54
  44  0.292  0.624  0.292-  61 1.53   6 1.53 121 1.53 178 1.54
  45  0.292  0.625  0.625-   7 1.54  62 1.54 122 1.54 179 1.54
  46  0.625  0.959  0.959- 180 1.53 135 1.53  17 1.54  66 1.54
  47  0.624  0.958  0.293- 133 1.53  18 1.53 181 1.54  64 1.54
  48  0.626  0.959  0.626-  19 1.53 134 1.53 182 1.54  65 1.54
  49  0.624  0.293  0.958- 129 1.53  69 1.53 183 1.54  11 1.54
  50  0.624  0.292  0.292- 127 1.53  12 1.53  67 1.53 184 1.54
  51  0.625  0.292  0.625-  13 1.54 128 1.54  68 1.54 185 1.54
  52  0.626  0.626  0.959-  72 1.53 132 1.53 186 1.54  14 1.54
  53  0.625  0.625  0.292-  70 1.54 130 1.54  15 1.54 187 1.54
  54  0.626  0.626  0.626-  16 1.54 131 1.54  71 1.54 188 1.54
  55  0.205  0.039  0.205- 136 1.54  91 1.54 190 1.54  38 1.56
  56  0.209  0.042  0.541-  92 1.53 137 1.54 191 1.54  39 1.54
  57  0.211  0.042  0.871- 189 1.51 138 1.52  93 1.53  37 1.55
  58  0.207  0.373  0.207-  41 1.53  94 1.54 193 1.54 139 1.55
  59  0.208  0.375  0.541-  95 1.53  42 1.53 194 1.54 140 1.54
  60  0.208  0.375  0.874- 141 1.53  40 1.54  96 1.54 192 1.54
  61  0.209  0.707  0.209-  44 1.53 142 1.54  97 1.54 196 1.54
  62  0.209  0.708  0.542-  45 1.54  98 1.54 197 1.54 143 1.54
  63  0.211  0.706  0.875- 195 1.53  43 1.53 144 1.53  99 1.54
  64  0.541  0.042  0.209- 199 1.53 145 1.54 100 1.54  47 1.54
  65  0.542  0.042  0.542- 101 1.53 200 1.53 146 1.54  48 1.54
  66  0.542  0.042  0.875- 198 1.53 147 1.54 102 1.54  46 1.54
  67  0.541  0.375  0.208- 202 1.53  50 1.53 103 1.54 148 1.54
  68  0.541  0.375  0.541- 104 1.54 203 1.54  51 1.54 149 1.54
  69  0.541  0.376  0.875-  49 1.53 201 1.53 150 1.54 105 1.54
  70  0.542  0.708  0.209-  53 1.54 205 1.54 106 1.54 151 1.54
  71  0.542  0.708  0.542- 107 1.53 206 1.53  54 1.54 152 1.54
  72  0.543  0.709  0.875- 204 1.53  52 1.53 108 1.54 153 1.54
  73  0.871  0.042  0.211-  82 1.51 154 1.52 208 1.53  29 1.55
  74  0.875  0.042  0.542-  83 1.53 155 1.54 209 1.54  30 1.54
  75  0.874  0.052  0.874-  84 1.51 207 1.51 156 1.54   1 1.98
  76  0.874  0.375  0.208- 157 1.53  32 1.54 211 1.54  85 1.54
  77  0.875  0.376  0.541-  33 1.53  86 1.53 158 1.54 212 1.54
  78  0.875  0.376  0.875-  31 1.53 159 1.54  87 1.54 210 1.54
  79  0.875  0.706  0.211-  88 1.53  35 1.53 160 1.53 214 1.54
  80  0.875  0.709  0.543-  89 1.53  36 1.53 215 1.54 161 1.54
  81  0.877  0.711  0.877-  34 1.53  90 1.54 213 1.54 162 1.55
  82  0.948  0.126  0.126-  73 1.51  20 1.51 109 1.54   1 1.98
  83  0.958  0.125  0.458-  74 1.53 110 1.54  21 1.54 163 1.54
  84  0.958  0.129  0.789-  75 1.51 111 1.52  22 1.53 164 1.55
  85  0.958  0.458  0.125-  23 1.53 112 1.54  76 1.54 165 1.54
  86  0.958  0.458  0.458-  24 1.53  77 1.53 113 1.54 166 1.54
  87  0.958  0.459  0.791-  25 1.53 114 1.54  78 1.54 167 1.54
  88  0.958  0.789  0.129-  26 1.51 115 1.52  79 1.53 168 1.55
  89  0.958  0.791  0.459-  80 1.53 116 1.54  27 1.54 169 1.54
  90  0.961  0.795  0.795- 117 1.54  81 1.54  28 1.54 170 1.56
  91  0.289  0.123  0.123- 171 1.53  55 1.54   2 1.54 118 1.55
  92  0.291  0.125  0.457-  56 1.53 172 1.53   3 1.54 119 1.54
  93  0.294  0.125  0.789-  57 1.53 173 1.53 120 1.53   4 1.54
  94  0.291  0.457  0.125-   5 1.53 174 1.53  58 1.54 121 1.54
  95  0.292  0.458  0.458-   6 1.53  59 1.53 175 1.54 122 1.54
  96  0.292  0.458  0.791- 176 1.54   7 1.54  60 1.54 123 1.54
  97  0.294  0.789  0.125-   8 1.53 177 1.53 124 1.53  61 1.54
  98  0.292  0.791  0.458- 178 1.54  62 1.54   9 1.54 125 1.54
  99  0.293  0.791  0.791- 179 1.53 126 1.54  63 1.54  10 1.54
 100  0.624  0.125  0.125- 180 1.53 127 1.54  11 1.54  64 1.54
 101  0.624  0.125  0.459- 181 1.53  65 1.53 128 1.54  12 1.54
 102  0.625  0.126  0.792- 129 1.53 182 1.54  13 1.54  66 1.54
 103  0.624  0.459  0.125- 183 1.53  14 1.53 130 1.54  67 1.54
 104  0.625  0.459  0.459-  68 1.54  15 1.54 184 1.54 131 1.54
 105  0.625  0.459  0.792-  16 1.53 185 1.53  69 1.54 132 1.54
 106  0.625  0.792  0.126- 133 1.53 186 1.54  70 1.54  17 1.54
 107  0.625  0.792  0.459-  71 1.53 187 1.53  18 1.54 134 1.54
 108  0.627  0.793  0.793- 188 1.53  72 1.54  19 1.54 135 1.55
 109  0.039  0.205  0.205-  82 1.54 139 1.54 190 1.54  32 1.56
 110  0.042  0.209  0.541- 140 1.53  83 1.54 191 1.54  33 1.54
 111  0.042  0.211  0.871- 189 1.51  84 1.52 141 1.53  31 1.55
 112  0.042  0.541  0.209- 193 1.53  85 1.54 142 1.54  35 1.54
 113  0.042  0.542  0.542- 143 1.53 194 1.53  86 1.54  36 1.54
 114  0.042  0.542  0.875- 192 1.53  87 1.54 144 1.54  34 1.54
 115  0.042  0.871  0.211- 136 1.51  88 1.52 196 1.53  29 1.55
 116  0.042  0.875  0.542- 137 1.53  89 1.54 197 1.54  30 1.54
 117  0.052  0.874  0.874- 138 1.51 195 1.51  90 1.54   1 1.98
 118  0.373  0.207  0.207-  41 1.53 148 1.54 199 1.54  91 1.55
 119  0.375  0.208  0.541- 149 1.53  42 1.53 200 1.54  92 1.54
 120  0.375  0.208  0.874-  93 1.53  40 1.54 150 1.54 198 1.54
 121  0.375  0.541  0.208- 202 1.53  44 1.53 151 1.54  94 1.54
 122  0.375  0.541  0.541- 152 1.54 203 1.54  45 1.54  95 1.54
 123  0.376  0.541  0.875-  43 1.53 201 1.53  96 1.54 153 1.54
 124  0.375  0.874  0.208-  97 1.53  38 1.54 205 1.54 145 1.54
 125  0.376  0.875  0.541-  39 1.53 146 1.53  98 1.54 206 1.54
 126  0.376  0.875  0.875-  37 1.53  99 1.54 147 1.54 204 1.54
 127  0.707  0.209  0.209-  50 1.53 100 1.54 157 1.54 208 1.54
 128  0.708  0.209  0.542-  51 1.54 158 1.54 209 1.54 101 1.54
 129  0.706  0.211  0.875- 207 1.53  49 1.53 102 1.53 159 1.54
 130  0.708  0.542  0.209-  53 1.54 211 1.54 160 1.54 103 1.54
 131  0.708  0.542  0.542- 161 1.53 212 1.53  54 1.54 104 1.54
 132  0.709  0.543  0.875- 210 1.53  52 1.53 162 1.54 105 1.54
 133  0.706  0.875  0.211- 154 1.53  47 1.53 106 1.53 214 1.54
 134  0.709  0.875  0.543- 155 1.53  48 1.53 215 1.54 107 1.54
 135  0.711  0.877  0.877-  46 1.53 156 1.54 213 1.54 108 1.55
 136  0.126  0.948  0.126- 115 1.51   8 1.51  55 1.54   1 1.98
 137  0.125  0.958  0.458- 116 1.53  56 1.54   9 1.54 163 1.54
 138  0.129  0.958  0.789- 117 1.51  57 1.52  10 1.53 164 1.55
 139  0.123  0.289  0.123- 165 1.53 109 1.54   2 1.54  58 1.55
 140  0.125  0.291  0.457- 110 1.53 166 1.53   3 1.54  59 1.54
 141  0.125  0.294  0.789- 111 1.53 167 1.53  60 1.53   4 1.54
 142  0.125  0.624  0.125- 168 1.53  61 1.54 112 1.54   5 1.54
 143  0.125  0.624  0.459- 169 1.53 113 1.53  62 1.54   6 1.54
 144  0.126  0.625  0.792-  63 1.53 170 1.54   7 1.54 114 1.54
 145  0.458  0.958  0.125-  17 1.53  64 1.54 124 1.54 171 1.54
 146  0.458  0.958  0.458-  18 1.53 125 1.53  65 1.54 172 1.54
 147  0.459  0.958  0.791-  19 1.53  66 1.54 126 1.54 173 1.54
 148  0.457  0.291  0.125-  11 1.53 174 1.53 118 1.54  67 1.54
 149  0.458  0.292  0.458-  12 1.53 119 1.53 175 1.54  68 1.54
 150  0.458  0.292  0.791- 176 1.54  13 1.54 120 1.54  69 1.54
 151  0.459  0.624  0.125- 177 1.53  14 1.53  70 1.54 121 1.54
 152  0.459  0.625  0.459-  15 1.54 122 1.54 178 1.54  71 1.54
 153  0.459  0.625  0.792-  16 1.53 179 1.53 123 1.54  72 1.54
 154  0.789  0.958  0.129-  26 1.51  73 1.52 133 1.53 180 1.55
 155  0.791  0.958  0.459- 134 1.53  74 1.54  27 1.54 181 1.54
 156  0.795  0.961  0.795-  75 1.54 135 1.54  28 1.54 182 1.56
 157  0.789  0.294  0.125-  20 1.53 183 1.53  76 1.53 127 1.54
 158  0.791  0.292  0.458- 184 1.54 128 1.54  21 1.54  77 1.54
 159  0.791  0.293  0.791- 185 1.53  78 1.54 129 1.54  22 1.54
 160  0.792  0.625  0.126-  79 1.53 186 1.54 130 1.54  23 1.54
 161  0.792  0.625  0.459- 131 1.53 187 1.53  24 1.54  80 1.54
 162  0.793  0.627  0.793- 188 1.53 132 1.54  25 1.54  81 1.55
 163  0.041  0.041  0.375-  29 1.53 190 1.53  83 1.54 137 1.54
 164  0.042  0.042  0.708-  30 1.53 191 1.53 138 1.55  84 1.55
 165  0.041  0.375  0.041-  31 1.53 139 1.53 192 1.54  85 1.54
 166  0.041  0.374  0.374- 193 1.53 140 1.53  32 1.54  86 1.54
 167  0.042  0.376  0.707- 141 1.53 194 1.53  33 1.54  87 1.54
 168  0.042  0.708  0.042-  34 1.53 142 1.53 195 1.55  88 1.55
 169  0.042  0.707  0.376- 196 1.53 143 1.53  35 1.54  89 1.54
 170  0.043  0.709  0.709- 197 1.54 144 1.54  36 1.54  90 1.56
 171  0.375  0.041  0.041-  37 1.53  91 1.53 145 1.54 198 1.54
 172  0.374  0.041  0.374- 199 1.53  92 1.53  38 1.54 146 1.54
 173  0.376  0.042  0.707-  93 1.53 200 1.53  39 1.54 147 1.54
 174  0.374  0.374  0.041-  94 1.53 148 1.53  40 1.54 201 1.54
 175  0.374  0.374  0.374- 202 1.54 149 1.54  95 1.54  41 1.54
 176  0.375  0.375  0.708-  96 1.54 150 1.54 203 1.54  42 1.54
 177  0.376  0.707  0.042-  97 1.53 151 1.53  43 1.54 204 1.54
 178  0.375  0.708  0.375- 205 1.54  98 1.54 152 1.54  44 1.54
 179  0.376  0.708  0.708-  99 1.53 206 1.53 153 1.53  45 1.54
 180  0.708  0.042  0.042-  46 1.53 100 1.53 154 1.55 207 1.55
 181  0.707  0.042  0.376- 208 1.53 101 1.53  47 1.54 155 1.54
 182  0.709  0.043  0.709- 209 1.54 102 1.54  48 1.54 156 1.56
 183  0.707  0.376  0.042- 157 1.53 103 1.53  49 1.54 210 1.54
 184  0.708  0.375  0.375- 211 1.54 158 1.54 104 1.54  50 1.54
 185  0.708  0.376  0.708- 159 1.53 212 1.53 105 1.53  51 1.54
 186  0.709  0.709  0.043- 106 1.54 160 1.54  52 1.54 213 1.56
 187  0.708  0.708  0.376- 214 1.53 161 1.53 107 1.53  53 1.54
 188  0.709  0.709  0.709- 215 1.53 162 1.53 108 1.53  54 1.54
 189  0.126  0.126  0.948-  57 1.51 111 1.51   2 1.54   1 1.98
 190  0.123  0.123  0.289- 163 1.53 109 1.54  55 1.54   3 1.55
 191  0.125  0.125  0.624- 164 1.53   4 1.54 110 1.54  56 1.54
 192  0.125  0.458  0.958- 114 1.53   5 1.54  60 1.54 165 1.54
 193  0.125  0.457  0.291- 112 1.53 166 1.53  58 1.54   6 1.54
 194  0.125  0.459  0.624- 167 1.53 113 1.53   7 1.54  59 1.54
 195  0.129  0.789  0.958- 117 1.51   8 1.52  63 1.53 168 1.55
 196  0.125  0.789  0.294- 115 1.53 169 1.53   9 1.53  61 1.54
 197  0.126  0.792  0.625-  10 1.53 170 1.54  62 1.54 116 1.54
 198  0.458  0.125  0.958-  66 1.53  11 1.54 120 1.54 171 1.54
 199  0.457  0.125  0.291-  64 1.53 172 1.53 118 1.54  12 1.54
 200  0.459  0.125  0.624- 173 1.53  65 1.53  13 1.54 119 1.54
 201  0.458  0.458  0.958-  69 1.53 123 1.53  14 1.54 174 1.54
 202  0.458  0.458  0.292-  67 1.53 121 1.53 175 1.54  15 1.54
 203  0.459  0.459  0.625-  68 1.54 122 1.54 176 1.54  16 1.54
 204  0.459  0.791  0.958-  72 1.53  17 1.54 126 1.54 177 1.54
 205  0.458  0.791  0.292- 178 1.54  70 1.54 124 1.54  18 1.54
 206  0.459  0.792  0.625-  71 1.53 179 1.53 125 1.54  19 1.54
 207  0.789  0.129  0.958-  75 1.51  20 1.52 129 1.53 180 1.55
 208  0.789  0.125  0.294-  73 1.53 181 1.53  21 1.53 127 1.54
 209  0.792  0.126  0.625-  22 1.53 182 1.54 128 1.54  74 1.54
 210  0.791  0.459  0.958- 132 1.53  23 1.54  78 1.54 183 1.54
 211  0.791  0.458  0.292- 184 1.54 130 1.54  76 1.54  24 1.54
 212  0.792  0.459  0.625- 131 1.53 185 1.53  77 1.54  25 1.54
 213  0.795  0.795  0.961-  26 1.54  81 1.54 135 1.54 186 1.56
 214  0.791  0.791  0.293- 187 1.53  27 1.54 133 1.54  79 1.54
 215  0.793  0.793  0.627- 188 1.53 134 1.54  80 1.54  28 1.55
 

IMPORTANT INFORMATION: All symmetrisations will be switched off!
NOSYMM: (Re-)initialisation of all symmetry stuff for point group C_1.

 
 
 KPOINTS: pymatgen v1.1 with grid density = 2210 /

Automatic generation of k-mesh.
Space group operators:
 irot       det(A)        alpha          n_x          n_y          n_z        tau_x        tau_y        tau_z
    1     1.000000     0.000000     1.000000     0.000000     0.000000     0.000000     0.000000     0.000000
 
 Subroutine IBZKPT returns following result:
 ===========================================
 
 Found      1 irreducible k-points:
 
 Following reciprocal coordinates:
            Coordinates               Weight
  0.000000  0.000000  0.000000      1.000000
 
 Following cartesian coordinates:
            Coordinates               Weight
  0.000000  0.000000  0.000000      1.000000
 
 
 Subroutine IBZKPT_HF returns following result:
 ==============================================
 
 Found      1 k-points in 1st BZ
 the following      1 k-points will be used (e.g. in the exchange kernel)
 Following reciprocal coordinates:   # in IRBZ
  0.000000  0.000000  0.000000    1.00000000   1 t-inv F


--------------------------------------------------------------------------------------------------------




 Dimension of arrays:
   k-points           NKPTS =      1   k-points in BZ     NKDIM =      1   number of bands    NBANDS=    608
   number of dos      NEDOS =    301   number of ions     NIONS =    215
   non local maximal  LDIM  =      4   non local SUM 2l+1 LMDIM =      8
   total plane-waves  NPLWV = 343000
   max r-space proj   IRMAX =   3182   max aug-charges    IRDMAX=   9703
   dimension x,y,z NGX =    70 NGY =   70 NGZ =   70
   dimension x,y,z NGXF=   140 NGYF=  140 NGZF=  140
   support grid    NGXF=   140 NGYF=  140 NGZF=  140
   ions per type =               1 214
   NGX,Y,Z   is equivalent  to a cutoff of  10.93, 10.93, 10.93 a.u.
   NGXF,Y,Z  is equivalent  to a cutoff of  21.86, 21.86, 21.86 a.u.

 SYSTEM =  unknown system                          
 POSCAR =  generated by phonopy                    

 Startparameter for this run:
   NWRITE =      2    write-flag & timer
   PREC   = accura    normal or accurate (medium, high low for compatibility)
   ISTART =      1    job   : 0-new  1-cont  2-samecut
   ICHARG =      2    charge: 1-file 2-atom 10-const
   ISPIN  =      2    spin polarized calculation?
   LNONCOLLINEAR =      F non collinear calculations
   LSORBIT =      F    spin-orbit coupling
   INIWAV =      1    electr: 0-lowe 1-rand  2-diag
   LASPH  =      F    aspherical Exc in radial PAW
   METAGGA=      F    non-selfconsistent MetaGGA calc.

 Electronic Relaxation 1
   ENCUT  =  400.0 eV  29.40 Ry    5.42 a.u.  17.36 17.36 17.36*2*pi/ulx,y,z
   ENINI  =  400.0     initial cutoff
   ENAUG  =  644.9 eV  augmentation charge cutoff
   NELM   =    100;   NELMIN=  2; NELMDL=  0     # of ELM steps 
   EDIFF  = 0.1E-04   stopping-criterion for ELM
   LREAL  =      T    real-space projection
   NLSPLINE    = F    spline interpolate recip. space projectors
   LCOMPAT=      F    compatible to vasp.4.4
   GGA_COMPAT  = T    GGA compatible to vasp.4.4-vasp.4.6
   LMAXPAW     = -100 max onsite density
   LMAXMIX     =    2 max onsite mixed and CHGCAR
   VOSKOWN=      0    Vosko Wilk Nusair interpolation
   ROPT   =   -0.00025  -0.00025
 Ionic relaxation
   EDIFFG = -.1E-01   stopping-criterion for IOM
   NSW    =     99    number of steps for IOM
   NBLOCK =      1;   KBLOCK =     99    inner block; outer block 
   IBRION =      2    ionic relax: 0-MD 1-quasi-New 2-CG
   NFREE  =      1    steps in history (QN), initial steepest desc. (CG)
   ISIF   =      2    stress and relaxation
   IWAVPR =     11    prediction:  0-non 1-charg 2-wave 3-comb
   ISYM   =      0    0-nonsym 1-usesym 2-fastsym
   LCORR  =      T    Harris-Foulkes like correction to forces

   POTIM  = 0.5000    time-step for ionic-motion
   TEIN   =    0.0    initial temperature
   TEBEG  =    0.0;   TEEND  =   0.0 temperature during run
   SMASS  =  -3.00    Nose mass-parameter (am)
   estimated Nose-frequenzy (Omega)   =  0.10E-29 period in steps =****** mass=  -0.259E-26a.u.
   SCALEE = 1.0000    scale energy and forces
   NPACO  =    256;   APACO  = 16.0  distance and # of slots for P.C.
   PSTRESS=    0.0 pullay stress

  Mass of Ions in am
   POMASS =  28.09 12.01
  Ionic Valenz
   ZVAL   =   4.00  4.00
  Atomic Wigner-Seitz radii
   RWIGS  =  -1.00 -1.00
  virtual crystal weights 
   VCA    =   1.00  1.00
   NELECT =     860.0000    total number of electrons
   NUPDOWN=       2.0000    fix difference up-down

 DOS related values:
   EMIN   =  10.00;   EMAX   =-10.00  energy-range for DOS
   EFERMI =   0.00
   ISMEAR =    -2;   SIGMA  =   0.05  broadening in eV -4-tet -1-fermi 0-gaus

 Electronic relaxation 2 (details)
   IALGO  =     58    algorithm
   LDIAG  =      F    sub-space diagonalisation (order eigenvalues)
   LSUBROT=      F    optimize rotation matrix (better conditioning)
   TURBO    =      0    0=normal 1=particle mesh
   IRESTART =      0    0=no restart 2=restart with 2 vectors
   NREBOOT  =      0    no. of reboots
   NMIN     =      0    reboot dimension
   EREF     =   0.00    reference energy to select bands
   IMIX   =      4    mixing-type and parameters
     AMIX     =   0.40;   BMIX     =  1.00
     AMIX_MAG =   1.60;   BMIX_MAG =  1.00
     AMIN     =   0.10
     WC   =   100.;   INIMIX=   1;  MIXPRE=   1;  MAXMIX= -45

 Intra band minimization:
   WEIMIN = 0.0010     energy-eigenvalue tresh-hold
   EBREAK =  0.41E-08  absolut break condition
   DEPER  =   0.30     relativ break condition  

   TIME   =   0.40     timestep for ELM

  volume/ion in A,a.u.               =       5.61        37.87
  Fermi-wavevector in a.u.,A,eV,Ry     =   1.462352  2.763445 29.095711  2.138474
  Thomas-Fermi vector in A             =   2.578576
 
 Write flags
   LWAVE        =      T    write WAVECAR
   LDOWNSAMPLE  =      F    k-point downsampling of WAVECAR
   LCHARG       =      F    write CHGCAR
   LVTOT        =      F    write LOCPOT, total local potential
   LVHAR        =      F    write LOCPOT, Hartree potential only
   LELF         =      F    write electronic localiz. function (ELF)
   LORBIT       =     11    0 simple, 1 ext, 2 COOP (PROOUT), +10 PAW based schemes


 Dipole corrections
   LMONO  =      F    monopole corrections only (constant potential shift)
   LDIPOL =      F    correct potential (dipole corrections)
   IDIPOL =      0    1-x, 2-y, 3-z, 4-all directions 
   EPSILON=  1.0000000 bulk dielectric constant

 Exchange correlation treatment:
   GGA     =    --    GGA type
   LEXCH   =     8    internal setting for exchange type
   VOSKOWN=      0    Vosko Wilk Nusair interpolation
   EXXOEP  =     0    0=HF, 1=EXX-LHF (local Hartree Fock) 2=EXX OEP
   LHFCALC =     T    Hartree Fock is set to
   LSYMGRAD=     F    symmetrize gradient (conserves proper symmetry)
   PRECFOCK=fast      Normal, Fast or Accurate (Low or Medium for compatibility)
   LRHFCALC=     F    long range Hartree Fock
   LRSCOR  =     F    long range correlation only (use DFT for short range part)
   LTHOMAS =     F    Thomas Fermi screening in HF
   LMODELHF=     F    short range full HF, long range fraction AEXX
   ENCUT4O =  -1.0   cutoff for four orbital integrals eV
   LMAXFOCK=     4    L truncation for augmentation on plane wave grid
   LMAXFOCKAE=  -1    L truncation for all-electron charge restoration on plane wave grid
   NMAXFOCKAE=   1    number of basis functions for all-electron charge restoration
   LFOCKAEDFT=     F  apply the AE augmentation even for DFT
   NKREDX  =     1    reduce k-point grid by
   NKREDY  =     1    reduce k-point grid by
   NKREDZ  =     1    reduce k-point grid by
   SHIFTRED=     F    shift reduced grid of Gamma
   HFKIDENT=     F    idential grid for each k-point
   ODDONLY =     F    use only odd q-grid points
   EVENONLY=     F    use only even q-grid points
   HFALPHA =   -1.0000 decay constant for conv. correction
   MCALPHA =    0.0000 extent of test-charge in conv. correction in multipole expansion
   AEXX    =    0.2500 exact exchange contribution
   HFSCREEN=    0.2000 screening length (either q_TF or 0.3 A-1)
   HFSCREENC=   0.2000 screening length for correlation (either q_TF or 0.3 A-1)
   HFRCUT  =    0.0000 spherical cutoff for potential kernel
   ALDAX   =    0.7500 LDA exchange part
   AGGAX   =    0.7500 GGA exchange part
   ALDAC   =    1.0000 LDA correlation
   AGGAC   =    1.0000 GGA correlation
   ENCUTFOCK=  -1.0 apply spherical cutoff to Coloumb kernel
   NBANDSGWLOW=     1    first orbital included in HF term
   NBLOCK_FOCK=    64    blocking factor in FOCK_ACC
 Linear response parameters
   LEPSILON=     F    determine dielectric tensor
   LRPA    =     F    only Hartree local field effects (RPA)
   LNABLA  =     F    use nabla operator in PAW spheres
   LVEL    =     F    velocity operator in full k-point grid
   LINTERFAST=   F  fast interpolation
   KINTER  =     0    interpolate to denser k-point grid
   CSHIFT  =0.1000    complex shift for real part using Kramers Kronig
   OMEGAMAX=  -1.0    maximum frequency
   DEG_THRESHOLD= 0.2000000E-02 threshold for treating states as degnerate
   RTIME   =   -0.100 relaxation time in fs
  (WPLASMAI=    0.000 imaginary part of plasma frequency in eV, 0.658/RTIME)
   DFIELD  = 0.0000000 0.0000000 0.0000000 field for delta impulse in time
 
 Orbital magnetization related:
   ORBITALMAG=     F  switch on orbital magnetization
   LCHIMAG   =     F  perturbation theory with respect to B field
   DQ        =  0.001000  dq finite difference perturbation B field
   LLRAUG    =     F  two centre corrections for induced B field



--------------------------------------------------------------------------------------------------------


 conjugate gradient relaxation of ions
 charge density and potential will be updated during run
 spin polarized calculation
 Conjugate gradient for all bands (Kresse, et al. variant)
 preconditioned conjugated gradient                                        
 perform Loewdin sub-space diagonalisation
    ordering is kept fixed
    before iterative eigenvector-optimisation
 modified Broyden-mixing scheme, WC =      100.0
 initial mixing is a Kerker type mixing with AMIX =  0.4000 and BMIX =      1.0000
 Hartree-type preconditioning will be used
 using additional bands           178
 real space projection scheme for non local part
 use partial core corrections
 no Harris-corrections to forces 
 use gradient corrections 
 use of overlap-Matrix (Vanderbilt PP)
 partial occupancies read from INCAR or WAVECAR (fixed during run)


--------------------------------------------------------------------------------------------------------


  energy-cutoff  :      400.00
  volume of cell :     1206.61
      direct lattice vectors                 reciprocal lattice vectors
     7.527901926  4.346236203  6.146506184     0.066419569  0.038347356  0.054231351
    -7.527901926  4.346236203  6.146506184    -0.066419569  0.038347356  0.054231351
    -0.000000000 -8.692472407  6.146506184     0.000000000 -0.076694712  0.054231351

  length of vectors
    10.646061000 10.646061000 10.646061000     0.093931455  0.093931455  0.093931455


 
 old parameters found on file WAVECAR:
  energy-cutoff  :      400.00
  volume of cell :     1206.61
      direct lattice vectors                 reciprocal lattice vectors
     7.527901926  4.346236203  6.146506184     0.066419569  0.038347356  0.054231351
    -7.527901926  4.346236203  6.146506184    -0.066419569  0.038347356  0.054231351
    -0.000000000 -8.692472407  6.146506184     0.000000000 -0.076694712  0.054231351

  length of vectors

 
 k-points in units of 2pi/SCALE and weight: pymatgen v1.1 with grid density = 2210 /
   0.00000000  0.00000000  0.00000000       1.000
 
 k-points in reciprocal lattice and weights: pymatgen v1.1 with grid density = 2210 /
   0.00000000  0.00000000  0.00000000       1.000
 
 position of ions in fractional coordinates (direct lattice) 
   0.00000000  0.00000000  0.00000000
   0.20523706  0.20523706  0.03907120
   0.20719807  0.20719807  0.37323555
   0.20880015  0.20880015  0.70709406
   0.20851414  0.54088306  0.04153516
   0.20821001  0.54072312  0.37471960
   0.20878162  0.54151212  0.70783595
   0.21092373  0.87111898  0.04180582
   0.20836162  0.87414202  0.37523652
   0.21063151  0.87457206  0.70624268
   0.54088306  0.20851414  0.04153516
   0.54072312  0.20821001  0.37471960
   0.54151212  0.20878162  0.70783595
   0.54172676  0.54172676  0.04185156
   0.54143265  0.54143265  0.37513137
   0.54213628  0.54213628  0.70840308
   0.54187583  0.87504318  0.04197505
   0.54133188  0.87475338  0.37581574
   0.54282232  0.87537489  0.70891527
   0.87111898  0.21092373  0.04180582
   0.87414202  0.20836162  0.37523652
   0.87457206  0.21063151  0.70624268
   0.87504318  0.54187583  0.04197505
   0.87475338  0.54133188  0.37581574
   0.87537489  0.54282232  0.70891527
   0.87382210  0.87382210  0.05213185
   0.87468421  0.87468421  0.37585623
   0.87692300  0.87692300  0.71062135
   0.95768266  0.95768266  0.29230318
   0.95898502  0.95898502  0.62544500
   0.95768266  0.29230318  0.95768266
   0.95715206  0.29094355  0.29094355
   0.95828690  0.29296320  0.62374209
   0.95898502  0.62544500  0.95898502
   0.95828690  0.62374209  0.29296320
   0.95883322  0.62575745  0.62575745
   0.29230318  0.95768266  0.95768266
   0.29094355  0.95715206  0.29094355
   0.29296320  0.95828690  0.62374209
   0.29094355  0.29094355  0.95715206
   0.29060861  0.29060861  0.29060861
   0.29183415  0.29183415  0.62393941
   0.29296320  0.62374209  0.95828690
   0.29183415  0.62393941  0.29183415
   0.29221657  0.62490576  0.62490576
   0.62544500  0.95898502  0.95898502
   0.62374209  0.95828690  0.29296320
   0.62575745  0.95883322  0.62575745
   0.62374209  0.29296320  0.95828690
   0.62393941  0.29183415  0.29183415
   0.62490576  0.29221657  0.62490576
   0.62575745  0.62575745  0.95883322
   0.62490576  0.62490576  0.29221657
   0.62563682  0.62563682  0.62563682
   0.20523706  0.03907120  0.20523706
   0.20851414  0.04153516  0.54088306
   0.21092373  0.04180582  0.87111898
   0.20719807  0.37323555  0.20719807
   0.20821001  0.37471960  0.54072312
   0.20836162  0.37523652  0.87414202
   0.20880015  0.70709406  0.20880015
   0.20878162  0.70783595  0.54151212
   0.21063151  0.70624268  0.87457206
   0.54088306  0.04153516  0.20851414
   0.54172676  0.04185156  0.54172676
   0.54187583  0.04197505  0.87504318
   0.54072312  0.37471960  0.20821001
   0.54143265  0.37513137  0.54143265
   0.54133188  0.37581574  0.87475338
   0.54151212  0.70783595  0.20878162
   0.54213628  0.70840308  0.54213628
   0.54282232  0.70891527  0.87537489
   0.87111898  0.04180582  0.21092373
   0.87504318  0.04197505  0.54187583
   0.87382210  0.05213185  0.87382210
   0.87414202  0.37523652  0.20836162
   0.87475338  0.37581574  0.54133188
   0.87468421  0.37585623  0.87468421
   0.87457206  0.70624268  0.21063151
   0.87537489  0.70891527  0.54282232
   0.87692300  0.71062135  0.87692300
   0.94786815  0.12617790  0.12617790
   0.95802495  0.12495682  0.45812417
   0.95819418  0.12888102  0.78907627
   0.95802495  0.45812417  0.12495682
   0.95814844  0.45827324  0.45827324
   0.95846484  0.45911694  0.79148586
   0.95819418  0.78907627  0.12888102
   0.95846484  0.79148586  0.45911694
   0.96092880  0.79476294  0.79476294
   0.28937865  0.12307700  0.12307700
   0.29108473  0.12462511  0.45717768
   0.29375732  0.12542794  0.78936849
   0.29108473  0.45717768  0.12462511
   0.29159692  0.45786372  0.45786372
   0.29216405  0.45848788  0.79121838
   0.29375732  0.78936849  0.12542794
   0.29216405  0.79121838  0.45848788
   0.29290594  0.79119985  0.79119985
   0.62414377  0.12531579  0.12531579
   0.62418426  0.12524662  0.45866812
   0.62476348  0.12585798  0.79163838
   0.62418426  0.45866812  0.12524662
   0.62486863  0.45856735  0.45856735
   0.62528040  0.45927688  0.79178999
   0.62476348  0.79163838  0.12585798
   0.62528040  0.79178999  0.45927688
   0.62676445  0.79280193  0.79280193
   0.03907120  0.20523706  0.20523706
   0.04153516  0.20851414  0.54088306
   0.04180582  0.21092373  0.87111898
   0.04153516  0.54088306  0.20851414
   0.04185156  0.54172676  0.54172676
   0.04197505  0.54187583  0.87504318
   0.04180582  0.87111898  0.21092373
   0.04197505  0.87504318  0.54187583
   0.05213185  0.87382210  0.87382210
   0.37323555  0.20719807  0.20719807
   0.37471960  0.20821001  0.54072312
   0.37523652  0.20836162  0.87414202
   0.37471960  0.54072312  0.20821001
   0.37513137  0.54143265  0.54143265
   0.37581574  0.54133188  0.87475338
   0.37523652  0.87414202  0.20836162
   0.37581574  0.87475338  0.54133188
   0.37585623  0.87468421  0.87468421
   0.70709406  0.20880015  0.20880015
   0.70783595  0.20878162  0.54151212
   0.70624268  0.21063151  0.87457206
   0.70783595  0.54151212  0.20878162
   0.70840308  0.54213628  0.54213628
   0.70891527  0.54282232  0.87537489
   0.70624268  0.87457206  0.21063151
   0.70891527  0.87537489  0.54282232
   0.71062135  0.87692300  0.87692300
   0.12617790  0.94786815  0.12617790
   0.12495682  0.95802495  0.45812417
   0.12888102  0.95819418  0.78907627
   0.12307700  0.28937865  0.12307700
   0.12462511  0.29108473  0.45717768
   0.12542794  0.29375732  0.78936849
   0.12531579  0.62414377  0.12531579
   0.12524662  0.62418426  0.45866812
   0.12585798  0.62476348  0.79163838
   0.45812417  0.95802495  0.12495682
   0.45827324  0.95814844  0.45827324
   0.45911694  0.95846484  0.79148586
   0.45717768  0.29108473  0.12462511
   0.45786372  0.29159692  0.45786372
   0.45848788  0.29216405  0.79121838
   0.45866812  0.62418426  0.12524662
   0.45856735  0.62486863  0.45856735
   0.45927688  0.62528040  0.79178999
   0.78907627  0.95819418  0.12888102
   0.79148586  0.95846484  0.45911694
   0.79476294  0.96092880  0.79476294
   0.78936849  0.29375732  0.12542794
   0.79121838  0.29216405  0.45848788
   0.79119985  0.29290594  0.79119985
   0.79163838  0.62476348  0.12585798
   0.79178999  0.62528040  0.45927688
   0.79280193  0.62676445  0.79280193
   0.04101498  0.04101498  0.37455500
   0.04231734  0.04231734  0.70769682
   0.04101498  0.37455500  0.04101498
   0.04116678  0.37424255  0.37424255
   0.04171310  0.37625791  0.70703680
   0.04231734  0.70769682  0.04231734
   0.04171310  0.70703680  0.37625791
   0.04284794  0.70905645  0.70905645
   0.37455500  0.04101498  0.04101498
   0.37424255  0.04116678  0.37424255
   0.37625791  0.04171310  0.70703680
   0.37424255  0.37424255  0.04116678
   0.37436318  0.37436318  0.37436318
   0.37509424  0.37509424  0.70778343
   0.37625791  0.70703680  0.04171310
   0.37509424  0.70778343  0.37509424
   0.37606059  0.70816585  0.70816585
   0.70769682  0.04231734  0.04231734
   0.70703680  0.04171310  0.37625791
   0.70905645  0.04284794  0.70905645
   0.70703680  0.37625791  0.04171310
   0.70778343  0.37509424  0.37509424
   0.70816585  0.37606059  0.70816585
   0.70905645  0.70905645  0.04284794
   0.70816585  0.70816585  0.37606059
   0.70939139  0.70939139  0.70939139
   0.12617790  0.12617790  0.94786815
   0.12307700  0.12307700  0.28937865
   0.12531579  0.12531579  0.62414377
   0.12495682  0.45812417  0.95802495
   0.12462511  0.45717768  0.29108473
   0.12524662  0.45866812  0.62418426
   0.12888102  0.78907627  0.95819418
   0.12542794  0.78936849  0.29375732
   0.12585798  0.79163838  0.62476348
   0.45812417  0.12495682  0.95802495
   0.45717768  0.12462511  0.29108473
   0.45866812  0.12524662  0.62418426
   0.45827324  0.45827324  0.95814844
   0.45786372  0.45786372  0.29159692
   0.45856735  0.45856735  0.62486863
   0.45911694  0.79148586  0.95846484
   0.45848788  0.79121838  0.29216405
   0.45927688  0.79178999  0.62528040
   0.78907627  0.12888102  0.95819418
   0.78936849  0.12542794  0.29375732
   0.79163838  0.12585798  0.62476348
   0.79148586  0.45911694  0.95846484
   0.79121838  0.45848788  0.29216405
   0.79178999  0.45927688  0.62528040
   0.79476294  0.79476294  0.96092880
   0.79119985  0.79119985  0.29290594
   0.79280193  0.79280193  0.62676445
 
 position of ions in cartesian coordinates  (Angst):
   0.00000000  0.00000000  0.00000000
   0.00000000  1.44439215  2.76313303
  -0.00000000 -1.44327621  4.84118298
  -0.00000000 -4.33140607  6.91294077
  -2.50204060  2.89601400  4.86147065
  -2.50312609 -0.00219952  6.90653848
  -2.50476261 -2.89189064  8.96240311
  -4.96988509  4.33941725  6.90774189
  -5.01192955  1.44308336  8.96000892
  -4.99807939 -1.42244392 11.01113545
   2.50204060  2.89601400  4.86147065
   2.50312609 -0.00219952  6.90653848
   2.50476261 -2.89189064  8.96240311
   0.00000000  4.34515144  6.91669463
   0.00000000  1.44556927  8.96158555
  -0.00000000 -1.44526957 11.01869193
  -2.50805112  5.79339774  8.96710142
  -2.50996436  2.88787307 11.01393057
  -2.50342306  0.00159361 13.07431003
   4.96988509  4.33941725  6.90774189
   5.01192955  1.44308336  8.96000892
   4.99807939 -1.42244392 11.01113545
   2.50805112  5.79339774  8.96710142
   2.50996436  2.88787307 11.01393057
   2.50342306  0.00159361 13.07431003
   0.00000000  7.14251989 11.06233466
   0.00000000  4.33604845 13.06270648
   0.00000000  1.44557245 15.14786381
   0.00000000  5.78379280 13.56944815
   0.00000000  2.89928745 15.63311623
   5.00891149 -2.89189640 13.56944815
   5.01515238  2.89549957  9.45971368
   5.00849154  0.01636755 11.52465111
   2.51085658 -1.44964372 15.63311623
   2.51842049  4.32929713 11.52465111
   2.50736174  1.44762598 13.58591834
  -5.00891149 -2.89189640 13.56944815
  -5.01515238  2.89549957  9.45971368
  -5.00849154  0.01636755 11.52465111
  -0.00000000 -5.79099915  9.45971368
  -0.00000000 -0.00000000  5.35868286
  -0.00000000 -2.88681581  7.42256823
  -2.49007106 -4.34566469 11.52465111
  -2.50005583  1.44340791  7.42256823
  -2.50445159 -1.44594580  9.47808512
  -2.51085658 -1.44964372 15.63311623
  -2.51842049  4.32929713 11.52465111
  -2.50736174  1.44762598 13.58591834
   2.49007106 -4.34566469 11.52465111
   2.50005583  1.44340791  7.42256823
   2.50445159 -1.44594580  9.47808512
  -0.00000000 -2.89525196 13.58591834
   0.00000000  2.89189161  9.47808512
   0.00000000 -0.00000000 11.53644182
   1.25088030 -0.72219608  2.76313303
   1.25700139 -3.61483772  4.86147065
   1.27310303 -6.47375536  6.90774189
  -1.24991386  0.72163810  4.84118298
  -1.25346789 -2.16667102  6.90653848
  -1.25621792 -5.06200000  8.96000892
  -3.75110769  2.16570304  6.91294077
  -3.75683206 -0.72324273  8.96240311
  -3.73091226 -3.61724176 11.01113545
   3.75904200  0.71882372  4.86147065
   3.76301153 -2.17257572  6.91669463
   3.76320406 -5.06873485  8.96710142
   1.24965820  2.16887054  6.90653848
   1.25189971 -0.72278464  8.96158555
   1.24598926 -3.61762943 11.01393057
  -1.25206945  3.61513337  8.96240311
  -1.25164016  0.72263479 11.01869193
  -1.25033142 -2.16882477 13.07431003
   6.24298811  2.13433812  6.90774189
   6.27125518 -0.72466289  8.96710142
   6.18560368 -3.57125995 11.06233466
   3.75571163  3.61891663  8.96000892
   3.75595362  0.72975636 11.01393057
   3.75512811 -2.16802422 13.06270648
   1.26716712  5.03968568 11.01113545
   1.25309164  2.16723116 13.07431003
   1.25190247 -0.72278623 15.14786381
   6.18560368  3.57125995  7.37718389
   6.27125518  0.72466289  9.47241713
   6.24298811 -2.13433812 11.53177666
   3.76320406  5.06873485  9.47241713
   3.76301153  2.17257572 11.52282392
   3.75904200 -0.71882372 13.57804790
   1.27310303  6.47375536 11.53177666
   1.25700139  3.61483772 13.57804790
   1.25088030  0.72219608 15.67638552
   1.25190247  0.72278623  3.29165474
   1.25309164 -2.16723116  5.36520852
   1.26716712 -5.03968568  7.42838310
  -1.25033142  2.16882477  5.36520852
  -1.25164016 -0.72263479  7.42082662
  -1.25206945 -3.61513337  9.47711544
  -3.73091226  3.61724176  7.42838310
  -3.75683206  0.72324273  9.47711544
  -3.75110769 -2.16570304 11.52657779
   3.75512811  2.16802422  5.37681207
   3.75595362 -0.72975636  7.42558798
   3.75571163 -3.61891663  9.47950963
   1.24598926  3.61762943  7.42558798
   1.25189971  0.72278464  9.47793301
   1.24965820 -2.16887054 11.53298007
  -1.25621792  5.06200000  9.47950963
  -1.25346789  2.16667102 11.53298007
  -1.24991386 -0.72163810 13.59833557
  -1.25088030 -0.72219608  2.76313303
  -1.25700139 -3.61483772  4.86147065
  -1.27310303 -6.47375536  6.90774189
  -3.75904200  0.71882372  4.86147065
  -3.76301153 -2.17257572  6.91669463
  -3.76320406 -5.06873485  8.96710142
  -6.24298811  2.13433812  6.90774189
  -6.27125518 -0.72466289  8.96710142
  -6.18560368 -3.57125995 11.06233466
   1.24991386  0.72163810  4.84118298
   1.25346789 -2.16667102  6.90653848
   1.25621792 -5.06200000  8.96000892
  -1.24965820  2.16887054  6.90653848
  -1.25189971 -0.72278464  8.96158555
  -1.24598926 -3.61762943 11.01393057
  -3.75571163  3.61891663  8.96000892
  -3.75595362  0.72975636 11.01393057
  -3.75512811 -2.16802422 13.06270648
   3.75110769  2.16570304  6.91294077
   3.75683206 -0.72324273  8.96240311
   3.73091226 -3.61724176 11.01113545
   1.25206945  3.61513337  8.96240311
   1.25164016  0.72263479 11.01869193
   1.25033142 -2.16882477 13.07431003
  -1.26716712  5.03968568 11.01113545
  -1.25309164  2.16723116 13.07431003
  -1.25190247 -0.72278623 15.14786381
  -6.18560368  3.57125995  7.37718389
  -6.27125518  0.72466289  9.47241713
  -6.24298811 -2.13433812 11.53177666
  -1.25190247  0.72278623  3.29165474
  -1.25309164 -2.16723116  5.36520852
  -1.26716712 -5.03968568  7.42838310
  -3.75512811  2.16802422  5.37681207
  -3.75595362 -0.72975636  7.42558798
  -3.75571163 -3.61891663  9.47950963
  -3.76320406  5.06873485  9.47241713
  -3.76301153  2.17257572 11.52282392
  -3.75904200 -0.71882372 13.57804790
   1.25033142  2.16882477  5.36520852
   1.25164016 -0.72263479  7.42082662
   1.25206945 -3.61513337  9.47711544
  -1.24598926  3.61762943  7.42558798
  -1.25189971  0.72278464  9.47793301
  -1.24965820 -2.16887054 11.53298007
  -1.27310303  6.47375536 11.53177666
  -1.25700139  3.61483772 13.57804790
  -1.25088030  0.72219608 15.67638552
   3.73091226  3.61724176  7.42838310
   3.75683206  0.72324273  9.47711544
   3.75110769 -2.16570304 11.52657779
   1.25621792  5.06200000  9.47950963
   1.25346789  2.16667102 11.53298007
   1.24991386 -0.72163810 13.59833557
  -0.00000000 -2.89928745  2.80640232
  -0.00000000 -5.78379280  4.87007040
  -2.51085658  1.44964372  2.80640232
  -2.50736174 -1.44762598  4.85360021
  -2.51842049 -4.32929713  6.91486744
  -5.00891149  2.89189640  4.87007040
  -5.00849154 -0.01636755  6.91486744
  -5.01515238 -2.89549957  8.97980487
   2.51085658  1.44964372  2.80640232
   2.50736174 -1.44762598  4.85360021
   2.51842049 -4.32929713  6.91486744
   0.00000000  2.89525196  4.85360021
   0.00000000 -0.00000000  6.90307674
  -0.00000000 -2.89189161  8.96143343
  -2.49007106  4.34566469  6.91486744
  -2.50445159  1.44594580  8.96143343
  -2.50005583 -1.44340791 11.01695032
   5.00891149  2.89189640  4.87007040
   5.00849154 -0.01636755  6.91486744
   5.01515238 -2.89549957  8.97980487
   2.49007106  4.34566469  6.91486744
   2.50445159  1.44594580  8.96143343
   2.50005583 -1.44340791 11.01695032
   0.00000000  5.79099915  8.97980487
   0.00000000  2.88681581 11.01695032
   0.00000000 -0.00000000 13.08083569
  -0.00000000 -7.14251989  7.37718389
  -0.00000000 -1.44557245  3.29165474
  -0.00000000 -4.33604845  5.37681207
  -2.50805112 -5.79339774  9.47241713
  -2.50342306 -0.00159361  5.36520852
  -2.50996436 -2.88787307  7.42558798
  -4.96988509 -4.33941725 11.53177666
  -4.99807939  1.42244392  7.42838310
  -5.01192955 -1.44308336  9.47950963
   2.50805112 -5.79339774  9.47241713
   2.50342306 -0.00159361  5.36520852
   2.50996436 -2.88787307  7.42558798
  -0.00000000 -4.34515144 11.52282392
   0.00000000  1.44526957  7.42082662
   0.00000000 -1.44556927  9.47793301
  -2.50204060 -2.89601400 13.57804790
  -2.50476261  2.89189064  9.47711544
  -2.50312609  0.00219952 11.53298007
   4.96988509 -4.33941725 11.53177666
   4.99807939  1.42244392  7.42838310
   5.01192955 -1.44308336  9.47950963
   2.50204060 -2.89601400 13.57804790
   2.50476261  2.89189064  9.47711544
   2.50312609  0.00219952 11.53298007
  -0.00000000 -1.44439215 15.67638552
   0.00000000  4.33140607 11.52657779
   0.00000000  1.44327621 13.59833557
 


--------------------------------------------------------------------------------------------------------


 use parallel FFT for orbitals z direction half grid
 k-point  1 :   0.0000 0.0000 0.0000  plane waves:   10988

 maximum and minimum number of plane-waves per node :       696      679

 maximum number of plane-waves:     10988
 maximum index in each direction: 
   IXMAX=   17   IYMAX=   17   IZMAX=   17
   IXMIN=  -17   IYMIN=  -17   IZMIN=    0


 real space projection operators:
  total allocation   :      40841.81 KBytes
  max/ min on nodes  :       2928.50       2334.94


 parallel 3D FFT for wavefunctions:
    minimum data exchange during FFTs selected (reduces bandwidth)
 parallel 3D FFT for charge:
    minimum data exchange during FFTs selected (reduces bandwidth)


 FFT grid for exact exchange (Hartree Fock) 
  NGX = 36; NGY = 36; NGZ = 36

 use parallel FFT for orbitals z direction half grid
 
 Radii for the augmentation spheres in the non-local exchange
 for species   1 augmentation radius   1.055 (default was   0.989)
       energy cutoff for augmentation   1600.0
 for species   2 augmentation radius   0.795 (default was   0.699)
       energy cutoff for augmentation   1600.0

 real space projection operators:
  total allocation   :       1318.99 KBytes
  max/ min on nodes  :        110.25         69.47

 Maximum index for augmentation-charges in exchange            37
  SETUP_FOCK is finished

 total amount of memory used by VASP MPI-rank0    40004. kBytes
=======================================================================

   base      :      30000. kBytes
   nonlr-proj:       3647. kBytes
   fftplans  :       1350. kBytes
   grid      :       3557. kBytes
   one-center:         43. kBytes
   HF        :          9. kBytes
   wavefun   :       1398. kBytes
 
     INWAV:  cpu time    0.3638: real time    0.3669
 Broyden mixing: mesh for mixing (old mesh)
   NGX = 35   NGY = 35   NGZ = 35
  (NGX  =140   NGY  =140   NGZ  =140)
  gives a total of  42875 points

 initial charge density was supplied:
 charge density of overlapping atoms calculated
 number of electron     860.0000000 magnetization     129.0000000
 charge density for first step will be calculated from the start-wavefunctions


--------------------------------------------------------------------------------------------------------


 Maximum index for non-local projection operator           457
 Maximum index for augmentation-charges           529 (set IRDMAX)


--------------------------------------------------------------------------------------------------------


 initial charge from wavefunction
 First call to EWALD:  gamma=   0.166
 Maximum number of real-space cells 3x 3x 3
 Maximum number of reciprocal cells 3x 3x 3

    FEWALD:  cpu time    0.0113: real time    0.0113

 ----------------------------------------------------------------------------- 
|                                                                             |
|           W    W    AA    RRRRR   N    N  II  N    N   GGGG   !!!           |
|           W    W   A  A   R    R  NN   N  II  NN   N  G    G  !!!           |
|           W    W  A    A  R    R  N N  N  II  N N  N  G       !!!           |
|           W WW W  AAAAAA  RRRRR   N  N N  II  N  N N  G  GGG   !            |
|           WW  WW  A    A  R   R   N   NN  II  N   NN  G    G                |
|           W    W  A    A  R    R  N    N  II  N    N   GGGG   !!!           |
|                                                                             |
|      ALGO=A and IALGO=5X tend to fail with the tetrahedron method           |
|      (e.g. Bloechls method ISMEAR=-5 is not variational)                    |
|      please switch to IMSEAR=0-n, except for DOS calculations               |
|      For DOS calculations use IALGO=53 after preconverging with ISMEAR>=0   |
|          I HOPE YOU KNOW, WHAT YOU ARE  DOING                               |
|                                                                             |
 ----------------------------------------------------------------------------- 



--------------------------------------- Iteration      1(   1)  ---------------------------------------


    POTLOK:  cpu time    0.1472: real time    0.1474
    SETDIJ:  cpu time    0.0494: real time    0.0494
    TRIAL :  cpu time    9.4659: real time    9.4670
    CORREC:  cpu time    9.3738: real time    9.3748
    CHARGE:  cpu time    0.0265: real time    0.0265
    --------------------------------------------
      LOOP:  cpu time   19.0700: real time   19.0748

 eigenvalue-minimisations  :     0
 total energy-change (2. order) :-0.2409077E+04  (-0.1819703E+00)
 number of electron     859.9999991 magnetization       1.9999999
 augmentation part       19.9524675 magnetization       0.1377664

 Free energy of the ion-electron system (eV)
  ---------------------------------------------------
  alpha Z        PSCENC =      3112.96981489
  Ewald energy   TEWEN  =    -37448.55501798
  -Hartree energ DENC   =     -2882.62055679
  -exchange      EXHF   =      1983.81339194
  -V(xc)+E(xc)   XCENC  =      2425.42920972
  PAW double counting   =     14907.27211250   -15090.28245550
  entropy T*S    EENTRO =         0.00000000
  eigenvalues    EBANDS =      -474.26154837
  atomic energy  EATOM  =     31057.15824686
  ---------------------------------------------------
  free energy    TOTEN  =     -2409.07680273 eV

  energy without entropy =    -2409.07680273  energy(sigma->0) =    -2409.07680273
  exchange ACFDT corr.  =        -0.07349732  see jH, gK, PRB 81, 115126


--------------------------------------------------------------------------------------------------------




--------------------------------------- Iteration      1(   2)  ---------------------------------------


    POTLOK:  cpu time    0.1322: real time    0.1323
    SETDIJ:  cpu time    0.0432: real time    0.0432
    TRIAL :  cpu time    9.3812: real time    9.3821
    CORREC:  cpu time    9.3029: real time    9.3038
    CHARGE:  cpu time    0.0228: real time    0.0228
    --------------------------------------------
      LOOP:  cpu time   18.8845: real time   18.8866

 eigenvalue-minimisations  :     0
 total energy-change (2. order) :-0.1819064E+00  (-0.2295886E-01)
 number of electron     859.9999991 magnetization       1.9999999
 augmentation part       19.9511844 magnetization       0.1367352

 Free energy of the ion-electron system (eV)
  ---------------------------------------------------
  alpha Z        PSCENC =      3112.96981489
  Ewald energy   TEWEN  =    -37448.55501798
  -Hartree energ DENC   =     -2883.13236269
  -exchange      EXHF   =      1983.78286432
  -V(xc)+E(xc)   XCENC  =      2425.40324454
  PAW double counting   =     14906.38337985   -15089.39142462
  entropy T*S    EENTRO =         0.00000000
  eigenvalues    EBANDS =      -473.87745427
  atomic energy  EATOM  =     31057.15824686
  ---------------------------------------------------
  free energy    TOTEN  =     -2409.25870911 eV

  energy without entropy =    -2409.25870911  energy(sigma->0) =    -2409.25870911
  exchange ACFDT corr.  =        -0.07359633  see jH, gK, PRB 81, 115126


--------------------------------------------------------------------------------------------------------




--------------------------------------- Iteration      1(   3)  ---------------------------------------


    POTLOK:  cpu time    0.1297: real time    0.1298
    SETDIJ:  cpu time    0.0421: real time    0.0422
    TRIAL :  cpu time    9.3312: real time    9.3321
    CORREC:  cpu time    9.3194: real time    9.3205
    CHARGE:  cpu time    0.0251: real time    0.0251
    --------------------------------------------
      LOOP:  cpu time   18.8478: real time   18.8499

 eigenvalue-minimisations  :     0
 total energy-change (2. order) :-0.2308221E-01  (-0.4512267E-02)
 number of electron     859.9999991 magnetization       1.9999999
 augmentation part       19.9512376 magnetization       0.1359506

 Free energy of the ion-electron system (eV)
  ---------------------------------------------------
  alpha Z        PSCENC =      3112.96981489
  Ewald energy   TEWEN  =    -37448.55501798
  -Hartree energ DENC   =     -2883.02856245
  -exchange      EXHF   =      1983.78192286
  -V(xc)+E(xc)   XCENC  =      2425.39885786
  PAW double counting   =     14906.27709429   -15089.28528589
  entropy T*S    EENTRO =         0.00000000
  eigenvalues    EBANDS =      -473.99886175
  atomic energy  EATOM  =     31057.15824686
  ---------------------------------------------------
  free energy    TOTEN  =     -2409.28179132 eV

  energy without entropy =    -2409.28179132  energy(sigma->0) =    -2409.28179132
  exchange ACFDT corr.  =        -0.07381649  see jH, gK, PRB 81, 115126


--------------------------------------------------------------------------------------------------------




--------------------------------------- Iteration      1(   4)  ---------------------------------------


    POTLOK:  cpu time    0.1497: real time    0.1497
    SETDIJ:  cpu time    0.0521: real time    0.0521
    TRIAL :  cpu time    9.3175: real time    9.3183
    CORREC:  cpu time    9.2999: real time    9.3006
    CHARGE:  cpu time    0.0225: real time    0.0225
    --------------------------------------------
      LOOP:  cpu time   18.8420: real time   18.8435

 eigenvalue-minimisations  :     0
 total energy-change (2. order) :-0.4557238E-02  (-0.1015014E-02)
 number of electron     859.9999991 magnetization       1.9999999
 augmentation part       19.9514755 magnetization       0.1354141

 Free energy of the ion-electron system (eV)
  ---------------------------------------------------
  alpha Z        PSCENC =      3112.96981489
  Ewald energy   TEWEN  =    -37448.55501798
  -Hartree energ DENC   =     -2883.14244011
  -exchange      EXHF   =      1983.78959098
  -V(xc)+E(xc)   XCENC  =      2425.40400830
  PAW double counting   =     14906.43169197   -15089.44044161
  entropy T*S    EENTRO =         0.00000000
  eigenvalues    EBANDS =      -473.90180185
  atomic energy  EATOM  =     31057.15824686
  ---------------------------------------------------
  free energy    TOTEN  =     -2409.28634856 eV

  energy without entropy =    -2409.28634856  energy(sigma->0) =    -2409.28634856
  exchange ACFDT corr.  =        -0.06602779  see jH, gK, PRB 81, 115126


--------------------------------------------------------------------------------------------------------




--------------------------------------- Iteration      1(   5)  ---------------------------------------


    POTLOK:  cpu time    0.1295: real time    0.1295
    SETDIJ:  cpu time    0.0433: real time    0.0433
    TRIAL :  cpu time    9.2805: real time    9.2812
    CORREC:  cpu time    9.3379: real time    9.3388
    CHARGE:  cpu time    0.0225: real time    0.0225
    --------------------------------------------
      LOOP:  cpu time   18.8140: real time   18.8156

 eigenvalue-minimisations  :     0
 total energy-change (2. order) :-0.1033616E-02  (-0.2564022E-03)
 number of electron     859.9999991 magnetization       1.9999999
 augmentation part       19.9515496 magnetization       0.1351713

 Free energy of the ion-electron system (eV)
  ---------------------------------------------------
  alpha Z        PSCENC =      3112.96981489
  Ewald energy   TEWEN  =    -37448.55501798
  -Hartree energ DENC   =     -2883.14670413
  -exchange      EXHF   =      1983.78985207
  -V(xc)+E(xc)   XCENC  =      2425.40427049
  PAW double counting   =     14906.42678401   -15089.43537693
  entropy T*S    EENTRO =         0.00000000
  eigenvalues    EBANDS =      -473.89925144
  atomic energy  EATOM  =     31057.15824686
  ---------------------------------------------------
  free energy    TOTEN  =     -2409.28738217 eV

  energy without entropy =    -2409.28738217  energy(sigma->0) =    -2409.28738217
  exchange ACFDT corr.  =        -0.06607554  see jH, gK, PRB 81, 115126


--------------------------------------------------------------------------------------------------------




--------------------------------------- Iteration      1(   6)  ---------------------------------------


    POTLOK:  cpu time    0.1295: real time    0.1296
    SETDIJ:  cpu time    0.0430: real time    0.0430
    TRIAL :  cpu time    9.2611: real time    9.2620
    CORREC:  cpu time    9.2801: real time    9.2808
    CHARGE:  cpu time    0.0250: real time    0.0250
    --------------------------------------------
      LOOP:  cpu time   18.7390: real time   18.7406

 eigenvalue-minimisations  :     0
 total energy-change (2. order) :-0.2623847E-03  (-0.7251708E-04)
 number of electron     859.9999991 magnetization       1.9999999
 augmentation part       19.9516085 magnetization       0.1350965

 Free energy of the ion-electron system (eV)
  ---------------------------------------------------
  alpha Z        PSCENC =      3112.96981489
  Ewald energy   TEWEN  =    -37448.55501798
  -Hartree energ DENC   =     -2883.15178137
  -exchange      EXHF   =      1983.79013117
  -V(xc)+E(xc)   XCENC  =      2425.40451234
  PAW double counting   =     14906.43666580   -15089.44540658
  entropy T*S    EENTRO =         0.00000000
  eigenvalues    EBANDS =      -473.89480970
  atomic energy  EATOM  =     31057.15824686
  ---------------------------------------------------
  free energy    TOTEN  =     -2409.28764456 eV

  energy without entropy =    -2409.28764456  energy(sigma->0) =    -2409.28764456
  exchange ACFDT corr.  =        -0.06610410  see jH, gK, PRB 81, 115126


--------------------------------------------------------------------------------------------------------




--------------------------------------- Iteration      1(   7)  ---------------------------------------


    POTLOK:  cpu time    0.1521: real time    0.1521
    SETDIJ:  cpu time    0.0460: real time    0.0460
    TRIAL :  cpu time    9.3633: real time    9.3641
    CORREC:  cpu time    9.4181: real time    9.4191
    CHARGE:  cpu time    0.0223: real time    0.0223
    --------------------------------------------
      LOOP:  cpu time   19.0022: real time   19.0039

 eigenvalue-minimisations  :     0
 total energy-change (2. order) :-0.7508186E-04  (-0.2210125E-04)
 number of electron     859.9999991 magnetization       1.9999999
 augmentation part       19.9516469 magnetization       0.1350798

 Free energy of the ion-electron system (eV)
  ---------------------------------------------------
  alpha Z        PSCENC =      3112.96981489
  Ewald energy   TEWEN  =    -37448.55501798
  -Hartree energ DENC   =     -2883.15629404
  -exchange      EXHF   =      1983.79032484
  -V(xc)+E(xc)   XCENC  =      2425.40466478
  PAW double counting   =     14906.44487469   -15089.45374828
  entropy T*S    EENTRO =         0.00000000
  eigenvalues    EBANDS =      -473.89058539
  atomic energy  EATOM  =     31057.15824686
  ---------------------------------------------------
  free energy    TOTEN  =     -2409.28771964 eV

  energy without entropy =    -2409.28771964  energy(sigma->0) =    -2409.28771964
  exchange ACFDT corr.  =        -0.06612664  see jH, gK, PRB 81, 115126


--------------------------------------------------------------------------------------------------------




--------------------------------------- Iteration      1(   8)  ---------------------------------------


    POTLOK:  cpu time    0.1293: real time    0.1293
    SETDIJ:  cpu time    0.0431: real time    0.0431
    TRIAL :  cpu time    9.2979: real time    9.2987
    CORREC:  cpu time    9.2712: real time    9.2718
    CHARGE:  cpu time    0.0220: real time    0.0220
    --------------------------------------------
      LOOP:  cpu time   18.7639: real time   18.7653

 eigenvalue-minimisations  :     0
 total energy-change (2. order) :-0.2328998E-04  (-0.7292582E-05)
 number of electron     859.9999991 magnetization       1.9999999
 augmentation part       19.9516648 magnetization       0.1350740

 Free energy of the ion-electron system (eV)
  ---------------------------------------------------
  alpha Z        PSCENC =      3112.96981489
  Ewald energy   TEWEN  =    -37448.55501798
  -Hartree energ DENC   =     -2883.15831431
  -exchange      EXHF   =      1983.79062065
  -V(xc)+E(xc)   XCENC  =      2425.40481915
  PAW double counting   =     14906.45073827   -15089.45966007
  entropy T*S    EENTRO =         0.00000000
  eigenvalues    EBANDS =      -473.88899039
  atomic energy  EATOM  =     31057.15824686
  ---------------------------------------------------
  free energy    TOTEN  =     -2409.28774293 eV

  energy without entropy =    -2409.28774293  energy(sigma->0) =    -2409.28774293
  exchange ACFDT corr.  =        -0.06614321  see jH, gK, PRB 81, 115126


--------------------------------------------------------------------------------------------------------




--------------------------------------- Iteration      1(   9)  ---------------------------------------


    POTLOK:  cpu time    0.1289: real time    0.1289
    SETDIJ:  cpu time    0.0431: real time    0.0431
    TRIAL :  cpu time    9.3343: real time    9.3350
    CORREC:  cpu time    9.4160: real time    9.4166
    CHARGE:  cpu time    0.0231: real time    0.0231
    --------------------------------------------
      LOOP:  cpu time   18.9456: real time   18.9469

 eigenvalue-minimisations  :     0
 total energy-change (2. order) :-0.7934095E-05  (-0.2653800E-05)
 number of electron     859.9999991 magnetization       1.9999999
 augmentation part       19.9516732 magnetization       0.1350704

 Free energy of the ion-electron system (eV)
  ---------------------------------------------------
  alpha Z        PSCENC =      3112.96981489
  Ewald energy   TEWEN  =    -37448.55501798
  -Hartree energ DENC   =     -2883.15952416
  -exchange      EXHF   =      1983.79087334
  -V(xc)+E(xc)   XCENC  =      2425.40491306
  PAW double counting   =     14906.45348928   -15089.46243468
  entropy T*S    EENTRO =         0.00000000
  eigenvalues    EBANDS =      -473.88811148
  atomic energy  EATOM  =     31057.15824686
  ---------------------------------------------------
  free energy    TOTEN  =     -2409.28775086 eV

  energy without entropy =    -2409.28775086  energy(sigma->0) =    -2409.28775086
  exchange ACFDT corr.  =        -0.06615536  see jH, gK, PRB 81, 115126


--------------------------------------------------------------------------------------------------------


  average scaling for gradient   1.1664


 average (electrostatic) potential at core
  the test charge radii are     0.9892  0.6991
  (the norm of the test charge is              1.0000)
       1 -74.6654       2 -41.5144       3 -41.5897       4 -41.5644       5 -41.6095
       6 -41.5976       7 -41.7035       8 -41.3217       9 -41.4268      10 -41.7493
      11 -41.6072      12 -41.6479      13 -41.5686      14 -41.6331      15 -41.6396
      16 -41.6227      17 -41.5518      18 -41.6067      19 -41.6094      20 -41.6203
      21 -41.7049      22 -41.2234      23 -41.6083      24 -41.5953      25 -41.6112
      26 -40.6190      27 -41.5560      28 -41.5177      29 -41.4873      30 -41.5115
      31 -41.5389      32 -41.8281      33 -41.4367      34 -41.5834      35 -41.4970
      36 -41.6630      37 -41.5332      38 -41.3692      39 -41.6799      40 -41.5858
      41 -41.5902      42 -41.6021      43 -41.6499      44 -41.5367      45 -41.6774
      46 -41.4891      47 -41.6538      48 -41.5420      49 -41.5645      50 -41.6741
      51 -41.5851      52 -41.6174      53 -41.6313      54 -41.6337      55 -41.2598
      56 -41.5954      57 -41.6188      58 -41.6214      59 -41.6215      60 -41.5670
      61 -41.4371      62 -41.6686      63 -41.7222      64 -41.6192      65 -41.6080
      66 -41.5287      67 -41.6563      68 -41.6281      69 -41.5829      70 -41.6053
      71 -41.6229      72 -41.6266      73 -41.7207      74 -41.5303      75 -39.7797
      76 -41.7228      77 -41.5566      78 -41.5406      79 -41.4286      80 -41.6029
      81 -41.6199      82 -41.3162      83 -41.5859      84 -41.0680      85 -41.6400
      86 -41.6158      87 -41.5773      88 -41.2519      89 -41.5494      90 -41.7734
      91 -41.4078      92 -41.5883      93 -41.5928      94 -41.6132      95 -41.6210
      96 -41.6490      97 -41.3513      98 -41.5771      99 -41.7077     100 -41.6538
     101 -41.6304     102 -41.4610     103 -41.6460     104 -41.6563     105 -41.5981
     106 -41.5812     107 -41.6132     108 -41.5807     109 -41.7725     110 -41.5502
     111 -41.2557     112 -41.5770     113 -41.6155     114 -41.6402     115 -41.0604
     116 -41.5861     117 -41.3200     118 -41.5805     119 -41.6139     120 -41.5817
     121 -41.5982     122 -41.6566     123 -41.6451     124 -41.4593     125 -41.6305
     126 -41.6527     127 -41.7081     128 -41.5764     129 -41.3561     130 -41.6489
     131 -41.6203     132 -41.6132     133 -41.5914     134 -41.5877     135 -41.4092
     136 -39.7692     137 -41.5298     138 -41.7231     139 -41.6205     140 -41.6039
     141 -41.4301     142 -41.5393     143 -41.5571     144 -41.7226     145 -41.5277
     146 -41.6084     147 -41.6190     148 -41.6271     149 -41.6232     150 -41.6059
     151 -41.5826     152 -41.6279     153 -41.6561     154 -41.6160     155 -41.5939
     156 -41.2648     157 -41.7224     158 -41.6686     159 -41.4388     160 -41.5664
     161 -41.6207     162 -41.6210     163 -41.5103     164 -41.4913     165 -41.5838
     166 -41.6635     167 -41.4972     168 -41.5370     169 -41.4361     170 -41.8277
     171 -41.4881     172 -41.5430     173 -41.6536     174 -41.6175     175 -41.6340
     176 -41.6318     177 -41.5634     178 -41.5846     179 -41.6736     180 -41.5348
     181 -41.6786     182 -41.3716     183 -41.6506     184 -41.6770     185 -41.5368
     186 -41.5853     187 -41.6013     188 -41.5901     189 -40.6229     190 -41.5165
     191 -41.5572     192 -41.6086     193 -41.6113     194 -41.5964     195 -41.6191
     196 -41.2188     197 -41.7043     198 -41.5525     199 -41.6095     200 -41.6074
     201 -41.6327     202 -41.6230     203 -41.6397     204 -41.6057     205 -41.5678
     206 -41.6476     207 -41.3253     208 -41.7493     209 -41.4282     210 -41.6096
     211 -41.7039     212 -41.5972     213 -41.5141     214 -41.5630     215 -41.5895
 
 
 
 E-fermi :   0.0200     XC(G=0): -10.8378     alpha+bet :-18.0036


 spin component 1

 k-point     1 :       0.0000    0.0000    0.0000
  band No.  band energies     occupation 
      1     -14.4063      1.00000
      2     -13.3499      1.00000
      3     -13.3276      1.00000
      4     -13.3175      1.00000
      5     -13.3316      1.00000
      6     -13.2360      1.00000
      7     -13.1468      1.00000
      8     -12.2606      1.00000
      9     -12.2705      1.00000
     10     -12.2015      1.00000
     11     -12.2296      1.00000
     12     -12.2250      1.00000
     13     -12.2092      1.00000
     14     -12.2227      1.00000
     15     -12.2030      1.00000
     16     -12.1346      1.00000
     17     -12.1683      1.00000
     18     -12.0543      1.00000
     19     -11.8698      1.00000
     20     -11.1390      1.00000
     21     -11.1310      1.00000
     22     -11.1373      1.00000
     23     -11.1143      1.00000
     24     -11.0947      1.00000
     25     -11.1094      1.00000
     26     -11.0274      1.00000
     27     -10.8393      1.00000
     28     -10.0239      1.00000
     29     -10.0425      1.00000
     30     -10.0026      1.00000
     31     -10.0064      1.00000
     32      -9.9518      1.00000
     33      -9.9117      1.00000
     34      -9.0701      1.00000
     35      -9.0604      1.00000
     36      -9.0359      1.00000
     37      -9.0206      1.00000
     38      -9.0312      1.00000
     39      -9.0119      1.00000
     40      -9.0256      1.00000
     41      -9.0139      1.00000
     42      -8.9998      1.00000
     43      -9.0124      1.00000
     44      -9.0177      1.00000
     45      -8.9947      1.00000
     46      -8.9895      1.00000
     47      -8.9787      1.00000
     48      -9.0040      1.00000
     49      -8.9416      1.00000
     50      -8.9712      1.00000
     51      -8.9364      1.00000
     52      -8.9193      1.00000
     53      -8.9238      1.00000
     54      -8.8813      1.00000
     55      -8.9298      1.00000
     56      -8.7174      1.00000
     57      -8.6395      1.00000
     58      -8.1915      1.00000
     59      -8.1710      1.00000
     60      -8.2050      1.00000
     61      -8.1643      1.00000
     62      -8.1635      1.00000
     63      -8.1493      1.00000
     64      -8.1524      1.00000
     65      -8.1553      1.00000
     66      -8.1180      1.00000
     67      -8.1455      1.00000
     68      -8.1456      1.00000
     69      -8.1389      1.00000
     70      -8.1263      1.00000
     71      -8.1527      1.00000
     72      -8.0880      1.00000
     73      -8.0771      1.00000
     74      -8.0624      1.00000
     75      -8.0644      1.00000
     76      -8.0403      1.00000
     77      -7.9879      1.00000
     78      -8.0527      1.00000
     79      -8.0362      1.00000
     80      -7.5071      1.00000
     81      -7.0163      1.00000
     82      -6.3201      1.00000
     83      -6.3090      1.00000
     84      -6.3188      1.00000
     85      -6.2582      1.00000
     86      -6.2922      1.00000
     87      -6.2871      1.00000
     88      -6.2488      1.00000
     89      -6.2775      1.00000
     90      -6.1927      1.00000
     91      -6.2310      1.00000
     92      -6.0247      1.00000
     93      -5.6260      1.00000
     94      -4.8668      1.00000
     95      -4.8654      1.00000
     96      -4.8328      1.00000
     97      -4.8145      1.00000
     98      -4.8250      1.00000
     99      -4.7641      1.00000
    100      -4.3554      1.00000
    101      -4.3210      1.00000
    102      -4.3119      1.00000
    103      -4.2947      1.00000
    104      -4.3178      1.00000
    105      -4.3033      1.00000
    106      -4.3049      1.00000
    107      -4.2882      1.00000
    108      -4.2780      1.00000
    109      -4.2726      1.00000
    110      -4.2760      1.00000
    111      -4.2747      1.00000
    112      -4.2482      1.00000
    113      -4.2354      1.00000
    114      -4.2053      1.00000
    115      -4.2378      1.00000
    116      -4.2041      1.00000
    117      -4.2252      1.00000
    118      -4.1827      1.00000
    119      -4.1583      1.00000
    120      -4.1565      1.00000
    121      -4.1538      1.00000
    122      -4.0910      1.00000
    123      -4.0668      1.00000
    124      -4.0215      1.00000
    125      -4.0096      1.00000
    126      -4.0207      1.00000
    127      -3.9874      1.00000
    128      -4.0250      1.00000
    129      -4.0234      1.00000
    130      -3.9530      1.00000
    131      -3.9671      1.00000
    132      -3.9891      1.00000
    133      -3.9700      1.00000
    134      -3.9735      1.00000
    135      -3.9814      1.00000
    136      -3.9800      1.00000
    137      -3.9689      1.00000
    138      -3.9739      1.00000
    139      -3.9393      1.00000
    140      -3.9609      1.00000
    141      -3.8917      1.00000
    142      -3.8538      1.00000
    143      -3.7347      1.00000
    144      -3.6715      1.00000
    145      -3.6861      1.00000
    146      -3.2645      1.00000
    147      -3.1319      1.00000
    148      -2.8605      1.00000
    149      -2.8477      1.00000
    150      -2.8246      1.00000
    151      -2.8006      1.00000
    152      -2.8289      1.00000
    153      -2.7970      1.00000
    154      -2.7508      1.00000
    155      -2.7974      1.00000
    156      -2.6780      1.00000
    157      -2.7418      1.00000
    158      -1.9829      1.00000
    159      -1.9247      1.00000
    160      -1.0662      1.00000
    161      -1.0635      1.00000
    162      -1.0570      1.00000
    163      -1.0546      1.00000
    164      -1.0463      1.00000
    165      -1.0458      1.00000
    166      -1.0241      1.00000
    167      -1.0061      1.00000
    168      -1.0191      1.00000
    169      -1.0168      1.00000
    170      -1.0062      1.00000
    171      -1.0107      1.00000
    172      -0.9949      1.00000
    173      -0.9221      1.00000
    174      -0.9475      1.00000
    175      -0.9277      1.00000
    176      -0.8996      1.00000
    177      -0.8902      1.00000
    178      -0.8346      1.00000
    179      -0.8051      1.00000
    180      -0.3476      1.00000
    181      -0.3984      1.00000
    182      -0.3833      1.00000
    183      -0.3592      1.00000
    184      -0.3744      1.00000
    185      -0.3718      1.00000
    186      -0.3469      1.00000
    187      -0.3551      1.00000
    188      -0.3334      1.00000
    189      -0.3522      1.00000
    190      -0.3426      1.00000
    191      -0.3341      1.00000
    192      -0.3210      1.00000
    193      -0.3315      1.00000
    194      -0.3231      1.00000
    195      -0.3169      1.00000
    196      -0.2605      1.00000
    197      -0.2686      1.00000
    198      -0.1806      1.00000
    199      -0.2127      1.00000
    200      -0.1412      1.00000
    201      -0.1961      1.00000
[...]
    4ORBIT:  cpu time    0.0000: real time    0.0000
 


 total charge     
 
# of ion       s       p       d       tot
------------------------------------------
    1        0.691   0.979   0.000   1.670
    2        0.837   1.739   0.000   2.577
    3        0.839   1.755   0.000   2.594
    4        0.840   1.762   0.000   2.602
    5        0.840   1.762   0.000   2.602
    6        0.840   1.762   0.000   2.602
    7        0.841   1.761   0.000   2.602
    8        0.845   1.766   0.000   2.610
    9        0.841   1.766   0.000   2.606
   10        0.844   1.764   0.000   2.608
   11        0.840   1.762   0.000   2.602
   12        0.840   1.762   0.000   2.602
   13        0.841   1.764   0.000   2.605
   14        0.841   1.763   0.000   2.604
   15        0.841   1.763   0.000   2.603
   16        0.841   1.765   0.000   2.606
   17        0.840   1.762   0.000   2.602
   18        0.842   1.767   0.000   2.609
   19        0.840   1.761   0.000   2.601
   20        0.844   1.769   0.000   2.613
   21        0.841   1.763   0.000   2.604
   22        0.844   1.780   0.000   2.624
   23        0.840   1.762   0.000   2.602
   24        0.841   1.768   0.000   2.610
   25        0.840   1.762   0.000   2.602
   26        0.849   1.760   0.000   2.609
   27        0.840   1.762   0.000   2.602
   28        0.839   1.753   0.000   2.592
   29        0.839   1.754   0.000   2.593
   30        0.841   1.764   0.000   2.605
   31        0.840   1.754   0.000   2.593
   32        0.841   1.742   0.000   2.583
   33        0.842   1.771   0.000   2.613
   34        0.840   1.764   0.000   2.604
   35        0.842   1.770   0.000   2.612
   36        0.840   1.759   0.000   2.600
   37        0.839   1.754   0.000   2.593
   38        0.840   1.754   0.000   2.595
   39        0.842   1.766   0.000   2.608
   40        0.840   1.749   0.000   2.590
   41        0.840   1.763   0.000   2.603
   42        0.841   1.765   0.000   2.606
   43        0.842   1.767   0.000   2.608
   44        0.841   1.766   0.000   2.607
   45        0.841   1.763   0.000   2.604
   46        0.841   1.764   0.000   2.605
   47        0.842   1.765   0.000   2.607
   48        0.840   1.760   0.000   2.600
   49        0.842   1.767   0.000   2.609
   50        0.841   1.765   0.000   2.606
   51        0.841   1.763   0.000   2.604
   52        0.840   1.760   0.000   2.600
   53        0.841   1.763   0.000   2.604
   54        0.840   1.760   0.000   2.601
   55        0.838   1.741   0.000   2.578
   56        0.840   1.762   0.000   2.602
   57        0.845   1.760   0.000   2.605
   58        0.839   1.756   0.000   2.595
   59        0.840   1.762   0.000   2.602
   60        0.841   1.764   0.000   2.605
   61        0.841   1.763   0.000   2.603
   62        0.841   1.761   0.000   2.602
   63        0.844   1.765   0.000   2.609
   64        0.840   1.762   0.000   2.602
   65        0.841   1.763   0.000   2.604
   66        0.840   1.762   0.000   2.603
   67        0.840   1.762   0.000   2.602
   68        0.840   1.763   0.000   2.603
   69        0.842   1.768   0.000   2.610
   70        0.841   1.763   0.000   2.604
   71        0.841   1.765   0.000   2.606
   72        0.840   1.761   0.000   2.601
   73        0.845   1.764   0.000   2.609
   74        0.840   1.762   0.000   2.603
   75        0.848   1.791   0.000   2.639
   76        0.841   1.763   0.000   2.603
   77        0.842   1.769   0.000   2.611
   78        0.840   1.763   0.000   2.603
   79        0.844   1.773   0.000   2.617
   80        0.840   1.762   0.000   2.602
   81        0.840   1.751   0.000   2.591
   82        0.853   1.736   0.000   2.588
   83        0.840   1.761   0.000   2.601
   84        0.845   1.779   0.000   2.624
   85        0.840   1.761   0.000   2.601
   86        0.841   1.764   0.000   2.605
   87        0.840   1.763   0.000   2.603
   88        0.845   1.777   0.000   2.621
   89        0.840   1.763   0.000   2.603
   90        0.838   1.738   0.000   2.576
   91        0.839   1.755   0.000   2.594
   92        0.840   1.762   0.000   2.602
   93        0.844   1.767   0.000   2.611
   94        0.840   1.762   0.000   2.602
   95        0.841   1.765   0.000   2.605
   96        0.841   1.763   0.000   2.604
   97        0.844   1.774   0.000   2.618
   98        0.841   1.764   0.000   2.605
   99        0.840   1.762   0.000   2.602
  100        0.841   1.760   0.000   2.600
  101        0.842   1.766   0.000   2.608
  102        0.841   1.765   0.000   2.606
  103        0.842   1.767   0.000   2.609
  104        0.841   1.762   0.000   2.602
  105        0.840   1.762   0.000   2.603
  106        0.841   1.764   0.000   2.605
  107        0.840   1.762   0.000   2.602
  108        0.839   1.755   0.000   2.594
  109        0.838   1.738   0.000   2.576
  110        0.840   1.763   0.000   2.603
  111        0.845   1.777   0.000   2.621
  112        0.840   1.763   0.000   2.603
  113        0.841   1.764   0.000   2.605
  114        0.840   1.761   0.000   2.601
  115        0.845   1.779   0.000   2.624
  116        0.840   1.761   0.000   2.601
  117        0.853   1.736   0.000   2.588
  118        0.839   1.755   0.000   2.594
  119        0.840   1.762   0.000   2.602
  120        0.841   1.764   0.000   2.605
  121        0.840   1.762   0.000   2.603
  122        0.841   1.762   0.000   2.602
  123        0.842   1.767   0.000   2.609
  124        0.841   1.765   0.000   2.606
  125        0.842   1.766   0.000   2.608
  126        0.841   1.760   0.000   2.600
  127        0.840   1.762   0.000   2.602
  128        0.841   1.764   0.000   2.605
  129        0.844   1.774   0.000   2.618
  130        0.841   1.763   0.000   2.604
  131        0.841   1.765   0.000   2.605
  132        0.840   1.762   0.000   2.602
  133        0.844   1.767   0.000   2.611
  134        0.840   1.762   0.000   2.602
  135        0.839   1.755   0.000   2.594
  136        0.848   1.792   0.000   2.640
  137        0.840   1.762   0.000   2.603
  138        0.845   1.764   0.000   2.609
  139        0.840   1.751   0.000   2.591
  140        0.840   1.762   0.000   2.602
  141        0.844   1.773   0.000   2.617
  142        0.840   1.763   0.000   2.603
  143        0.842   1.769   0.000   2.611
  144        0.841   1.763   0.000   2.603
  145        0.840   1.762   0.000   2.603
  146        0.841   1.763   0.000   2.604
  147        0.840   1.762   0.000   2.602
  148        0.840   1.761   0.000   2.601
  149        0.841   1.765   0.000   2.606
  150        0.841   1.763   0.000   2.604
  151        0.842   1.768   0.000   2.610
  152        0.840   1.763   0.000   2.603
  153        0.840   1.762   0.000   2.602
  154        0.845   1.760   0.000   2.604
  155        0.840   1.762   0.000   2.602
  156        0.838   1.741   0.000   2.578
  157        0.844   1.765   0.000   2.608
  158        0.841   1.761   0.000   2.602
  159        0.841   1.763   0.000   2.603
  160        0.841   1.764   0.000   2.605
  161        0.840   1.762   0.000   2.602
  162        0.839   1.756   0.000   2.595
  163        0.841   1.764   0.000   2.605
  164        0.839   1.754   0.000   2.593
  165        0.840   1.764   0.000   2.604
  166        0.840   1.760   0.000   2.600
  167        0.842   1.770   0.000   2.612
  168        0.840   1.754   0.000   2.593
  169        0.842   1.771   0.000   2.613
  170        0.841   1.742   0.000   2.583
  171        0.841   1.764   0.000   2.605
  172        0.840   1.760   0.000   2.600
  173        0.842   1.765   0.000   2.607
  174        0.840   1.760   0.000   2.600
  175        0.840   1.760   0.000   2.601
  176        0.841   1.763   0.000   2.604
  177        0.842   1.767   0.000   2.609
  178        0.841   1.763   0.000   2.604
  179        0.841   1.765   0.000   2.606
  180        0.839   1.754   0.000   2.593
  181        0.842   1.766   0.000   2.608
  182        0.840   1.754   0.000   2.595
  183        0.842   1.767   0.000   2.608
  184        0.841   1.763   0.000   2.604
  185        0.841   1.766   0.000   2.607
  186        0.840   1.749   0.000   2.590
  187        0.841   1.765   0.000   2.606
  188        0.840   1.763   0.000   2.603
  189        0.849   1.759   0.000   2.609
  190        0.839   1.753   0.000   2.592
  191        0.840   1.762   0.000   2.602
  192        0.840   1.762   0.000   2.602
  193        0.840   1.762   0.000   2.602
  194        0.841   1.768   0.000   2.610
  195        0.844   1.768   0.000   2.613
  196        0.844   1.780   0.000   2.624
  197        0.841   1.763   0.000   2.604
  198        0.840   1.762   0.000   2.602
  199        0.840   1.761   0.000   2.601
  200        0.842   1.767   0.000   2.608
  201        0.841   1.763   0.000   2.604
  202        0.841   1.765   0.000   2.606
  203        0.841   1.763   0.000   2.603
  204        0.840   1.762   0.000   2.602
  205        0.841   1.764   0.000   2.605
  206        0.840   1.762   0.000   2.602
  207        0.845   1.765   0.000   2.610
  208        0.844   1.764   0.000   2.608
  209        0.841   1.766   0.000   2.606
  210        0.840   1.762   0.000   2.603
  211        0.841   1.761   0.000   2.602
  212        0.840   1.762   0.000   2.602
  213        0.837   1.739   0.000   2.577
  214        0.840   1.762   0.000   2.602
  215        0.839   1.755   0.000   2.594
--------------------------------------------------
tot        180.701 378.086   0.000 558.787
 


 magnetization (x)
 
# of ion       s       p       d       tot
------------------------------------------
    1       -0.016   0.056   0.000   0.040
    2       -0.001   0.000   0.000  -0.001
    3       -0.000   0.000   0.000  -0.000
    4       -0.000   0.000   0.000  -0.000
    5       -0.000   0.001   0.000   0.000
    6        0.000   0.001   0.000   0.001
    7        0.000   0.006   0.000   0.006
    8        0.001   0.015   0.000   0.016
    9       -0.000  -0.000   0.000  -0.000
   10        0.002   0.020   0.000   0.022
   11       -0.000   0.001   0.000   0.001
   12       -0.000   0.001   0.000   0.001
   13        0.000   0.002   0.000   0.002
   14        0.000   0.003   0.000   0.003
   15        0.000   0.001   0.000   0.001
   16        0.000   0.001   0.000   0.001
   17        0.000   0.001   0.000   0.001
   18        0.000   0.003   0.000   0.003
   19        0.000   0.002   0.000   0.002
   20        0.000   0.011   0.000   0.011
   21       -0.000   0.002   0.000   0.002
   22        0.000   0.002   0.000   0.002
   23        0.000   0.002   0.000   0.002
   24        0.000   0.002   0.000   0.002
   25       -0.000   0.000   0.000   0.000
   26        0.012   0.110   0.000   0.123
   27        0.000   0.002   0.000   0.002
   28        0.000   0.006   0.000   0.007
   29        0.000   0.003   0.000   0.003
   30       -0.000   0.001   0.000   0.000
   31        0.000   0.004   0.000   0.004
   32        0.002   0.022   0.000   0.024
   33       -0.000   0.000   0.000   0.000
   34       -0.000   0.000   0.000   0.000
   35        0.000   0.001   0.000   0.001
   36        0.000   0.001   0.000   0.002
   37        0.000   0.002   0.000   0.002
   38        0.001   0.004   0.000   0.005
   39        0.000   0.007   0.000   0.007
   40        0.001   0.011   0.000   0.012
   41       -0.000   0.001   0.000   0.001
   42        0.000   0.002   0.000   0.002
   43        0.000   0.005   0.000   0.006
   44        0.000   0.000   0.000   0.001
   45       -0.000   0.001   0.000   0.001
   46       -0.000   0.001   0.000   0.001
   47        0.000   0.007   0.000   0.007
   48        0.000   0.000   0.000   0.000
   49        0.000   0.005   0.000   0.005
   50        0.000   0.002   0.000   0.002
   51        0.000   0.001   0.000   0.001
   52        0.000   0.001   0.000   0.001
   53        0.000   0.001   0.000   0.001
   54        0.000   0.002   0.000   0.002
   55       -0.001  -0.000   0.000  -0.001
   56       -0.000   0.001   0.000   0.000
   57        0.000   0.020   0.000   0.020
   58       -0.000   0.000   0.000  -0.000
   59        0.000   0.001   0.000   0.001
   60       -0.000   0.000   0.000  -0.000
   61       -0.000  -0.000   0.000  -0.000
   62        0.000   0.006   0.000   0.006
   63        0.002   0.020   0.000   0.022
   64       -0.000   0.001   0.000   0.001
   65        0.000   0.003   0.000   0.003
   66        0.000   0.001   0.000   0.001
   67       -0.000   0.001   0.000   0.001
   68        0.000   0.001   0.000   0.001
   69        0.000   0.002   0.000   0.002
   70        0.000   0.003   0.000   0.003
   71        0.000   0.001   0.000   0.001
   72        0.000   0.002   0.000   0.002
   73        0.000   0.015   0.000   0.015
   74        0.000   0.001   0.000   0.001
   75        0.004   0.026   0.000   0.030
   76       -0.000   0.002   0.000   0.002
   77        0.000   0.001   0.000   0.001
   78        0.000   0.001   0.000   0.001
   79        0.001   0.010   0.000   0.012
   80       -0.000   0.000   0.000   0.000
   81        0.000   0.008   0.000   0.008
   82        0.015   0.174   0.000   0.189
   83        0.000   0.002   0.000   0.002
   84       -0.000   0.001   0.000   0.001
   85        0.000   0.002   0.000   0.002
   86        0.000   0.002   0.000   0.003
   87       -0.000   0.000   0.000   0.000
   88       -0.000   0.002   0.000   0.001
   89       -0.000   0.000   0.000   0.000
   90       -0.001   0.004   0.000   0.003
   91        0.000   0.001   0.000   0.002
   92        0.000   0.001   0.000   0.001
   93        0.001   0.014   0.000   0.016
   94        0.000   0.001   0.000   0.001
   95        0.000   0.001   0.000   0.001
   96        0.000   0.003   0.000   0.003
   97        0.001   0.006   0.000   0.007
   98        0.000   0.001   0.000   0.001
   99       -0.000  -0.000   0.000  -0.001
  100        0.000   0.004   0.000   0.005
  101        0.000   0.004   0.000   0.004
  102       -0.000   0.000   0.000   0.000
  103        0.000   0.003   0.000   0.003
  104        0.000   0.002   0.000   0.003
  105       -0.000   0.000   0.000   0.000
  106       -0.000   0.001   0.000   0.000
  107       -0.000   0.000   0.000   0.000
  108       -0.000   0.001   0.000   0.001
  109       -0.001   0.004   0.000   0.003
  110       -0.000   0.000   0.000   0.000
  111       -0.000   0.001   0.000   0.001
  112       -0.000   0.000   0.000   0.000
  113        0.000   0.002   0.000   0.003
  114        0.000   0.002   0.000   0.002
  115       -0.000   0.001   0.000   0.001
  116        0.000   0.002   0.000   0.002
  117        0.015   0.174   0.000   0.189
  118       -0.000   0.001   0.000   0.001
  119       -0.000   0.000   0.000   0.000
  120       -0.000   0.001   0.000   0.000
  121       -0.000   0.000   0.000   0.000
  122        0.000   0.002   0.000   0.003
  123        0.000   0.003   0.000   0.003
  124       -0.000   0.000   0.000   0.000
  125        0.000   0.004   0.000   0.004
  126        0.000   0.004   0.000   0.005
  127       -0.000  -0.000   0.000  -0.001
  128        0.000   0.001   0.000   0.001
  129        0.001   0.006   0.000   0.007
  130        0.000   0.003   0.000   0.003
  131        0.000   0.001   0.000   0.001
  132        0.000   0.001   0.000   0.001
  133        0.001   0.014   0.000   0.016
  134        0.000   0.001   0.000   0.001
  135        0.000   0.001   0.000   0.002
  136        0.004   0.027   0.000   0.030
  137        0.000   0.001   0.000   0.001
  138        0.000   0.015   0.000   0.015
  139        0.000   0.008   0.000   0.008
  140       -0.000   0.000   0.000   0.000
  141        0.001   0.010   0.000   0.012
  142        0.000   0.001   0.000   0.001
  143        0.000   0.001   0.000   0.001
  144       -0.000   0.002   0.000   0.002
  145        0.000   0.001   0.000   0.001
  146        0.000   0.003   0.000   0.003
  147       -0.000   0.001   0.000   0.001
  148        0.000   0.002   0.000   0.002
  149        0.000   0.001   0.000   0.001
  150        0.000   0.003   0.000   0.003
  151        0.000   0.002   0.000   0.002
  152        0.000   0.001   0.000   0.001
  153       -0.000   0.001   0.000   0.001
  154        0.001   0.020   0.000   0.020
  155       -0.000   0.001   0.000   0.001
  156       -0.001  -0.000   0.000  -0.001
  157        0.002   0.020   0.000   0.022
  158        0.000   0.006   0.000   0.006
  159       -0.000  -0.000   0.000  -0.000
  160       -0.000   0.000   0.000  -0.000
  161        0.000   0.001   0.000   0.001
  162       -0.000   0.000   0.000  -0.000
  163       -0.000   0.001   0.000   0.000
  164        0.000   0.003   0.000   0.003
  165       -0.000   0.000   0.000   0.000
  166        0.000   0.001   0.000   0.001
  167        0.000   0.001   0.000   0.001
  168        0.000   0.004   0.000   0.004
  169       -0.000  -0.000   0.000  -0.000
  170        0.002   0.022   0.000   0.024
  171       -0.000   0.001   0.000   0.001
  172        0.000   0.000   0.000   0.000
  173        0.000   0.007   0.000   0.007
  174        0.000   0.001   0.000   0.001
  175        0.000   0.002   0.000   0.002
  176        0.000   0.001   0.000   0.001
  177        0.000   0.005   0.000   0.005
  178        0.000   0.001   0.000   0.001
  179        0.000   0.002   0.000   0.002
  180        0.000   0.002   0.000   0.002
  181        0.000   0.006   0.000   0.007
  182        0.001   0.004   0.000   0.005
  183        0.000   0.005   0.000   0.006
  184       -0.000   0.001   0.000   0.001
  185        0.000   0.001   0.000   0.001
  186        0.001   0.011   0.000   0.012
  187        0.000   0.002   0.000   0.002
  188       -0.000   0.001   0.000   0.001
  189        0.012   0.111   0.000   0.123
  190        0.000   0.006   0.000   0.007
  191        0.000   0.002   0.000   0.002
  192        0.000   0.002   0.000   0.002
  193       -0.000   0.000   0.000   0.000
  194        0.000   0.002   0.000   0.002
  195        0.000   0.011   0.000   0.011
  196        0.000   0.002   0.000   0.002
  197       -0.000   0.002   0.000   0.002
  198        0.000   0.001   0.000   0.001
  199        0.000   0.002   0.000   0.002
  200        0.000   0.003   0.000   0.003
  201        0.000   0.003   0.000   0.003
  202        0.000   0.001   0.000   0.001
  203        0.000   0.001   0.000   0.001
  204       -0.000   0.001   0.000   0.001
  205        0.000   0.002   0.000   0.002
  206       -0.000   0.001   0.000   0.001
  207        0.001   0.015   0.000   0.016
  208        0.002   0.020   0.000   0.022
  209       -0.000  -0.000   0.000  -0.000
  210       -0.000   0.001   0.000   0.000
  211        0.000   0.006   0.000   0.006
  212        0.000   0.001   0.000   0.001
  213       -0.001   0.000   0.000  -0.001
  214       -0.000   0.000   0.000  -0.000
  215       -0.000   0.000   0.000  -0.000
--------------------------------------------------
tot          0.069   1.337   0.000   1.406
 

 total amount of memory used by VASP MPI-rank0    40004. kBytes
=======================================================================

   base      :      30000. kBytes
   nonlr-proj:       3647. kBytes
   fftplans  :       1350. kBytes
   grid      :       3557. kBytes
   one-center:         43. kBytes
   HF        :          9. kBytes
   wavefun   :       1398. kBytes
 
  
  
 General timing and accounting informations for this job:
 ========================================================
  
                  Total CPU time used (sec):     1931.946
                            User time (sec):     1927.050
                          System time (sec):        4.896
                         Elapsed time (sec):     1932.985
  
                   Maximum memory used (kb):      415584.
                   Average memory used (kb):           0.
  
                          Minor page faults:        52429
                          Major page faults:          386
                 Voluntary context switches:          932
