 vasp.5.4.4.18Apr17-6-g9f103f2a35 (build Dec 19 2024 10:44:08) gamma-only        
 executed on NVIDIA22.7_CrayMPICH date 2025.02.14  12:27:49
 running on  512 total cores
 distrk:  each k-point on  512 cores,    1 groups
 distr:  one band on NCORES_PER_BAND=  16 cores,   32 groups


--------------------------------------------------------------------------------------------------------


 INCAR:
 POTCAR:   PAW_PBE Si 05Jan2001                   
 POTCAR:   PAW_PBE C 08Apr2002                    
 POTCAR:   PAW_PBE Si 05Jan2001                   
   VRHFIN =Si: s2p2                                                             
   LEXCH  = PE                                                                  
   EATOM  =   103.0669 eV,    7.5752 Ry                                         
                                                                                
   TITEL  = PAW_PBE Si 05Jan2001                                                
   LULTRA =        F    use ultrasoft PP ?                                      
   IUNSCR =        1    unscreen: 0-lin 1-nonlin 2-no                           
   RPACOR =    1.500    partial core radius                                     
   POMASS =   28.085; ZVAL   =    4.000    mass and valenz                      
   RCORE  =    1.900    outmost cutoff radius                                   
   RWIGS  =    2.480; RWIGS  =    1.312    wigner-seitz radius (au A)           
   ENMAX  =  245.345; ENMIN  =  184.009 eV                                      
   ICORE  =        2    local potential                                         
   LCOR   =        T    correct aug charges                                     
   LPAW   =        T    paw PP                                                  
   EAUG   =  322.069                                                            
   DEXC   =    -.007                                                            
   RMAX   =    2.944    core radius for proj-oper                               
   RAUG   =    1.300    factor for augmentation sphere                          
   RDEP   =    1.993    radius for radial grids                                 
   QCUT   =   -4.246; QGAM   =    8.493    optimization parameters              
                                                                                
   Description                                                                  
     l     E      TYP  RCUT    TYP  RCUT                                        
     0   .000     23  1.900                                                     
     0   .000     23  1.900                                                     
     1   .000     23  1.900                                                     
     1   .000     23  1.900                                                     
     2   .000      7  1.900                                                     
  local pseudopotential read in
  partial core-charges read in
  atomic valenz-charges read in
  non local Contribution for L=            0  read in
    real space projection operators read in
  non local Contribution for L=            0  read in
    real space projection operators read in
  non local Contribution for L=            1  read in
    real space projection operators read in
  non local Contribution for L=            1  read in
    real space projection operators read in
    PAW grid and wavefunctions read in
 
   number of l-projection  operators is LMAX  =            4
   number of lm-projection operators is LMMAX =            8
 
 POTCAR:   PAW_PBE C 08Apr2002                    
   VRHFIN =C: s2p2                                                              
   LEXCH  = PE                                                                  
   EATOM  =   147.1560 eV,   10.8157 Ry                                         
                                                                                
   TITEL  = PAW_PBE C 08Apr2002                                                 
   LULTRA =        F    use ultrasoft PP ?                                      
   IUNSCR =        0    unscreen: 0-lin 1-nonlin 2-no                           
   RPACOR =     .000    partial core radius                                     
   POMASS =   12.011; ZVAL   =    4.000    mass and valenz                      
   RCORE  =    1.500    outmost cutoff radius                                   
   RWIGS  =    1.630; RWIGS  =     .863    wigner-seitz radius (au A)           
   ENMAX  =  400.000; ENMIN  =  300.000 eV                                      
   ICORE  =        2    local potential                                         
   LCOR   =        T    correct aug charges                                     
   LPAW   =        T    paw PP                                                  
   EAUG   =  644.873                                                            
   DEXC   =     .000                                                            
   RMAX   =    2.266    core radius for proj-oper                               
   RAUG   =    1.300    factor for augmentation sphere                          
   RDEP   =    1.501    radius for radial grids                                 
   RDEPT  =    1.300    core radius for aug-charge                              
   QCUT   =   -5.516; QGAM   =   11.032    optimization parameters              
                                                                                
   Description                                                                  
     l     E      TYP  RCUT    TYP  RCUT                                        
     0   .000     23  1.200                                                     
     0   .000     23  1.200                                                     
     1   .000     23  1.500                                                     
     1  2.500     23  1.500                                                     
     2   .000      7  1.500                                                     
  local pseudopotential read in
  atomic valenz-charges read in
  non local Contribution for L=            0  read in
    real space projection operators read in
  non local Contribution for L=            0  read in
    real space projection operators read in
  non local Contribution for L=            1  read in
    real space projection operators read in
  non local Contribution for L=            1  read in
    real space projection operators read in
    PAW grid and wavefunctions read in
 
   number of l-projection  operators is LMAX  =            4
   number of lm-projection operators is LMMAX =            8
 
 Optimization of the real space projectors (new method)

 maximal supplied QI-value         = 19.84
 optimisation between [QCUT,QGAM] = [ 10.12, 20.44] = [ 28.68,116.96] Ry 
 Optimized for a Real-space Cutoff    1.38 Angstroem

   l    n(q)    QCUT    max X(q) W(low)/X(q) W(high)/X(q)  e(spline) 
   0      8    10.119     8.708    0.16E-04    0.67E-05    0.60E-08
   0      8    10.119   106.241    0.56E-04    0.11E-03    0.54E-07
   1      8    10.119     5.901    0.16E-04    0.16E-05    0.22E-07
   1      8    10.119    73.241    0.22E-03    0.17E-03    0.18E-06
 Optimization of the real space projectors (new method)

 maximal supplied QI-value         = 25.13
 optimisation between [QCUT,QGAM] = [ 10.05, 20.36] = [ 28.30,116.06] Ry 
 Optimized for a Real-space Cutoff    1.38 Angstroem

   l    n(q)    QCUT    max X(q) W(low)/X(q) W(high)/X(q)  e(spline) 
   0      8    10.053     5.582    0.33E-04    0.15E-04    0.75E-07
   0      8    10.053    69.432    0.23E-03    0.38E-03    0.25E-06
   1      8    10.053     2.780    0.76E-04    0.11E-03    0.15E-06
   1      8    10.053     4.549    0.19E-03    0.19E-03    0.27E-06
 PAW_PBE Si 05Jan2001                   :
 energy of atom  1       EATOM= -103.0669
 kinetic energy error for atom=    0.0012 (will be added to EATOM!!)
 PAW_PBE C 08Apr2002                    :
 energy of atom  2       EATOM= -147.1560
 kinetic energy error for atom=    0.0288 (will be added to EATOM!!)
 
 
 POSCAR: generated by phonopy                    
  positions in direct lattice
  velocities in cartesian coordinates
 exchange correlation table for  LEXCH =        8
   RHO(1)=    0.500       N(1)  =     2000
   RHO(2)=  100.500       N(2)  =     4000
 


--------------------------------------------------------------------------------------------------------


 ion  position               nearest neighbor table
   1  0.000  0.000  0.000-  26 1.98 189 1.98 136 1.98  75 1.98  82 1.98 117 1.98
   2  0.205  0.205  0.039- 189 1.54 139 1.54  91 1.54  40 1.56
   3  0.207  0.207  0.373-  41 1.53  92 1.54 140 1.54 190 1.55
   4  0.209  0.209  0.707-  42 1.53 191 1.54 141 1.54  93 1.54
   5  0.209  0.541  0.042-  94 1.53 192 1.54 142 1.54  43 1.54
   6  0.208  0.541  0.375-  95 1.53  44 1.53 143 1.54 193 1.54
   7  0.209  0.542  0.708-  45 1.54  96 1.54 144 1.54 194 1.54
   8  0.211  0.871  0.042- 136 1.51 195 1.52  97 1.53  37 1.55
   9  0.208  0.874  0.375- 196 1.53  38 1.54  98 1.54 137 1.54
  10  0.211  0.875  0.706- 138 1.53  39 1.53 197 1.53  99 1.54
  11  0.541  0.209  0.042- 148 1.53 198 1.54 100 1.54  49 1.54
  12  0.541  0.208  0.375- 149 1.53  50 1.53 101 1.54 199 1.54
  13  0.542  0.209  0.708-  51 1.54 150 1.54 102 1.54 200 1.54
  14  0.542  0.542  0.042- 103 1.53 151 1.53 201 1.54  52 1.54
  15  0.541  0.541  0.375- 104 1.54 152 1.54  53 1.54 202 1.54
  16  0.542  0.542  0.708- 153 1.53 105 1.53  54 1.54 203 1.54
  17  0.542  0.875  0.042- 145 1.53 204 1.54 106 1.54  46 1.54
  18  0.541  0.875  0.376-  47 1.53 146 1.53 205 1.54 107 1.54
  19  0.543  0.875  0.709- 147 1.53  48 1.53 108 1.54 206 1.54
  20  0.871  0.211  0.042-  82 1.51 207 1.52 157 1.53  31 1.55
  21  0.874  0.208  0.375- 208 1.53  32 1.54 158 1.54  83 1.54
  22  0.875  0.211  0.706-  84 1.53  33 1.53 209 1.53 159 1.54
  23  0.875  0.542  0.042-  85 1.53 210 1.54 160 1.54  34 1.54
  24  0.875  0.541  0.376-  35 1.53  86 1.53 211 1.54 161 1.54
  25  0.875  0.543  0.709-  87 1.53  36 1.53 162 1.54 212 1.54
  26  0.874  0.874  0.052-  88 1.51 154 1.51 213 1.54   1 1.98
  27  0.875  0.875  0.376-  29 1.53 214 1.54 155 1.54  89 1.54
  28  0.877  0.877  0.711-  30 1.53  90 1.54 156 1.54 215 1.55
  29  0.958  0.958  0.292- 163 1.53  27 1.53 115 1.55  73 1.55
  30  0.959  0.959  0.625- 164 1.53  28 1.53 116 1.54  74 1.54
  31  0.958  0.292  0.958- 165 1.53  78 1.53  20 1.55 111 1.55
  32  0.957  0.291  0.291-  21 1.54  76 1.54 166 1.54 109 1.56
  33  0.958  0.293  0.624-  22 1.53  77 1.53 167 1.54 110 1.54
  34  0.959  0.625  0.959- 168 1.53  81 1.53  23 1.54 114 1.54
  35  0.958  0.624  0.293-  79 1.53  24 1.53 169 1.54 112 1.54
  36  0.959  0.626  0.626-  25 1.53  80 1.53 170 1.54 113 1.54
  37  0.292  0.958  0.958- 171 1.53 126 1.53   8 1.55  57 1.55
  38  0.291  0.957  0.291-   9 1.54 124 1.54 172 1.54  55 1.56
  39  0.293  0.958  0.624-  10 1.53 125 1.53 173 1.54  56 1.54
  40  0.291  0.291  0.957-  60 1.54 120 1.54 174 1.54   2 1.56
  41  0.291  0.291  0.291-   3 1.53  58 1.53 118 1.53 175 1.54
  42  0.292  0.292  0.624-   4 1.53  59 1.53 119 1.53 176 1.54
  43  0.293  0.624  0.958-  63 1.53 123 1.53 177 1.54   5 1.54
  44  0.292  0.624  0.292-  61 1.53   6 1.53 121 1.53 178 1.54
  45  0.292  0.625  0.625-   7 1.54  62 1.54 122 1.54 179 1.54
  46  0.625  0.959  0.959- 180 1.53 135 1.53  17 1.54  66 1.54
  47  0.624  0.958  0.293- 133 1.53  18 1.53 181 1.54  64 1.54
  48  0.626  0.959  0.626-  19 1.53 134 1.53 182 1.54  65 1.54
  49  0.624  0.293  0.958- 129 1.53  69 1.53 183 1.54  11 1.54
  50  0.624  0.292  0.292- 127 1.53  12 1.53  67 1.53 184 1.54
  51  0.625  0.292  0.625-  13 1.54 128 1.54  68 1.54 185 1.54
  52  0.626  0.626  0.959-  72 1.53 132 1.53 186 1.54  14 1.54
  53  0.625  0.625  0.292-  70 1.54 130 1.54  15 1.54 187 1.54
  54  0.626  0.626  0.626-  16 1.54 131 1.54  71 1.54 188 1.54
  55  0.205  0.039  0.205- 136 1.54  91 1.54 190 1.54  38 1.56
  56  0.209  0.042  0.541-  92 1.53 137 1.54 191 1.54  39 1.54
  57  0.211  0.042  0.871- 189 1.51 138 1.52  93 1.53  37 1.55
  58  0.207  0.373  0.207-  41 1.53  94 1.54 193 1.54 139 1.55
  59  0.208  0.375  0.541-  95 1.53  42 1.53 194 1.54 140 1.54
  60  0.208  0.375  0.874- 141 1.53  40 1.54  96 1.54 192 1.54
  61  0.209  0.707  0.209-  44 1.53 142 1.54  97 1.54 196 1.54
  62  0.209  0.708  0.542-  45 1.54  98 1.54 197 1.54 143 1.54
  63  0.211  0.706  0.875- 195 1.53  43 1.53 144 1.53  99 1.54
  64  0.541  0.042  0.209- 199 1.53 145 1.54 100 1.54  47 1.54
  65  0.542  0.042  0.542- 101 1.53 200 1.53 146 1.54  48 1.54
  66  0.542  0.042  0.875- 198 1.53 147 1.54 102 1.54  46 1.54
  67  0.541  0.375  0.208- 202 1.53  50 1.53 103 1.54 148 1.54
  68  0.541  0.375  0.541- 104 1.54 203 1.54  51 1.54 149 1.54
  69  0.541  0.376  0.875-  49 1.53 201 1.53 150 1.54 105 1.54
  70  0.542  0.708  0.209-  53 1.54 205 1.54 106 1.54 151 1.54
  71  0.542  0.708  0.542- 107 1.53 206 1.53  54 1.54 152 1.54
  72  0.543  0.709  0.875- 204 1.53  52 1.53 108 1.54 153 1.54
  73  0.871  0.042  0.211-  82 1.51 154 1.52 208 1.53  29 1.55
  74  0.875  0.042  0.542-  83 1.53 155 1.54 209 1.54  30 1.54
  75  0.874  0.052  0.874-  84 1.51 207 1.51 156 1.54   1 1.98
  76  0.874  0.375  0.208- 157 1.53  32 1.54 211 1.54  85 1.54
  77  0.875  0.376  0.541-  33 1.53  86 1.53 158 1.54 212 1.54
  78  0.875  0.376  0.875-  31 1.53 159 1.54  87 1.54 210 1.54
  79  0.875  0.706  0.211-  88 1.53  35 1.53 160 1.53 214 1.54
  80  0.875  0.709  0.543-  89 1.53  36 1.53 215 1.54 161 1.54
  81  0.877  0.711  0.877-  34 1.53  90 1.54 213 1.54 162 1.55
  82  0.948  0.126  0.126-  73 1.51  20 1.51 109 1.54   1 1.98
  83  0.958  0.125  0.458-  74 1.53 110 1.54  21 1.54 163 1.54
  84  0.958  0.129  0.789-  75 1.51 111 1.52  22 1.53 164 1.55
  85  0.958  0.458  0.125-  23 1.53 112 1.54  76 1.54 165 1.54
  86  0.958  0.458  0.458-  24 1.53  77 1.53 113 1.54 166 1.54
  87  0.958  0.459  0.791-  25 1.53 114 1.54  78 1.54 167 1.54
  88  0.958  0.789  0.129-  26 1.51 115 1.52  79 1.53 168 1.55
  89  0.958  0.791  0.459-  80 1.53 116 1.54  27 1.54 169 1.54
  90  0.961  0.795  0.795- 117 1.54  81 1.54  28 1.54 170 1.56
  91  0.289  0.123  0.123- 171 1.53  55 1.54   2 1.54 118 1.55
  92  0.291  0.125  0.457-  56 1.53 172 1.53   3 1.54 119 1.54
  93  0.294  0.125  0.789-  57 1.53 173 1.53 120 1.53   4 1.54
  94  0.291  0.457  0.125-   5 1.53 174 1.53  58 1.54 121 1.54
  95  0.292  0.458  0.458-   6 1.53  59 1.53 175 1.54 122 1.54
  96  0.292  0.458  0.791- 176 1.54   7 1.54  60 1.54 123 1.54
  97  0.294  0.789  0.125-   8 1.53 177 1.53 124 1.53  61 1.54
  98  0.292  0.791  0.458- 178 1.54  62 1.54   9 1.54 125 1.54
  99  0.293  0.791  0.791- 179 1.53 126 1.54  63 1.54  10 1.54
 100  0.624  0.125  0.125- 180 1.53 127 1.54  11 1.54  64 1.54
 101  0.624  0.125  0.459- 181 1.53  65 1.53 128 1.54  12 1.54
 102  0.625  0.126  0.792- 129 1.53 182 1.54  13 1.54  66 1.54
 103  0.624  0.459  0.125- 183 1.53  14 1.53 130 1.54  67 1.54
 104  0.625  0.459  0.459-  68 1.54  15 1.54 184 1.54 131 1.54
 105  0.625  0.459  0.792-  16 1.53 185 1.53  69 1.54 132 1.54
 106  0.625  0.792  0.126- 133 1.53 186 1.54  70 1.54  17 1.54
 107  0.625  0.792  0.459-  71 1.53 187 1.53  18 1.54 134 1.54
 108  0.627  0.793  0.793- 188 1.53  72 1.54  19 1.54 135 1.55
 109  0.039  0.205  0.205-  82 1.54 139 1.54 190 1.54  32 1.56
 110  0.042  0.209  0.541- 140 1.53  83 1.54 191 1.54  33 1.54
 111  0.042  0.211  0.871- 189 1.51  84 1.52 141 1.53  31 1.55
 112  0.042  0.541  0.209- 193 1.53  85 1.54 142 1.54  35 1.54
 113  0.042  0.542  0.542- 143 1.53 194 1.53  86 1.54  36 1.54
 114  0.042  0.542  0.875- 192 1.53  87 1.54 144 1.54  34 1.54
 115  0.042  0.871  0.211- 136 1.51  88 1.52 196 1.53  29 1.55
 116  0.042  0.875  0.542- 137 1.53  89 1.54 197 1.54  30 1.54
 117  0.052  0.874  0.874- 138 1.51 195 1.51  90 1.54   1 1.98
 118  0.373  0.207  0.207-  41 1.53 148 1.54 199 1.54  91 1.55
 119  0.375  0.208  0.541- 149 1.53  42 1.53 200 1.54  92 1.54
 120  0.375  0.208  0.874-  93 1.53  40 1.54 150 1.54 198 1.54
 121  0.375  0.541  0.208- 202 1.53  44 1.53 151 1.54  94 1.54
 122  0.375  0.541  0.541- 152 1.54 203 1.54  45 1.54  95 1.54
 123  0.376  0.541  0.875-  43 1.53 201 1.53  96 1.54 153 1.54
 124  0.375  0.874  0.208-  97 1.53  38 1.54 205 1.54 145 1.54
 125  0.376  0.875  0.541-  39 1.53 146 1.53  98 1.54 206 1.54
 126  0.376  0.875  0.875-  37 1.53  99 1.54 147 1.54 204 1.54
 127  0.707  0.209  0.209-  50 1.53 100 1.54 157 1.54 208 1.54
 128  0.708  0.209  0.542-  51 1.54 158 1.54 209 1.54 101 1.54
 129  0.706  0.211  0.875- 207 1.53  49 1.53 102 1.53 159 1.54
 130  0.708  0.542  0.209-  53 1.54 211 1.54 160 1.54 103 1.54
 131  0.708  0.542  0.542- 161 1.53 212 1.53  54 1.54 104 1.54
 132  0.709  0.543  0.875- 210 1.53  52 1.53 162 1.54 105 1.54
 133  0.706  0.875  0.211- 154 1.53  47 1.53 106 1.53 214 1.54
 134  0.709  0.875  0.543- 155 1.53  48 1.53 215 1.54 107 1.54
 135  0.711  0.877  0.877-  46 1.53 156 1.54 213 1.54 108 1.55
 136  0.126  0.948  0.126- 115 1.51   8 1.51  55 1.54   1 1.98
 137  0.125  0.958  0.458- 116 1.53  56 1.54   9 1.54 163 1.54
 138  0.129  0.958  0.789- 117 1.51  57 1.52  10 1.53 164 1.55
 139  0.123  0.289  0.123- 165 1.53 109 1.54   2 1.54  58 1.55
 140  0.125  0.291  0.457- 110 1.53 166 1.53   3 1.54  59 1.54
 141  0.125  0.294  0.789- 111 1.53 167 1.53  60 1.53   4 1.54
 142  0.125  0.624  0.125- 168 1.53  61 1.54 112 1.54   5 1.54
 143  0.125  0.624  0.459- 169 1.53 113 1.53  62 1.54   6 1.54
 144  0.126  0.625  0.792-  63 1.53 170 1.54   7 1.54 114 1.54
 145  0.458  0.958  0.125-  17 1.53  64 1.54 124 1.54 171 1.54
 146  0.458  0.958  0.458-  18 1.53 125 1.53  65 1.54 172 1.54
 147  0.459  0.958  0.791-  19 1.53  66 1.54 126 1.54 173 1.54
 148  0.457  0.291  0.125-  11 1.53 174 1.53 118 1.54  67 1.54
 149  0.458  0.292  0.458-  12 1.53 119 1.53 175 1.54  68 1.54
 150  0.458  0.292  0.791- 176 1.54  13 1.54 120 1.54  69 1.54
 151  0.459  0.624  0.125- 177 1.53  14 1.53  70 1.54 121 1.54
 152  0.459  0.625  0.459-  15 1.54 122 1.54 178 1.54  71 1.54
 153  0.459  0.625  0.792-  16 1.53 179 1.53 123 1.54  72 1.54
 154  0.789  0.958  0.129-  26 1.51  73 1.52 133 1.53 180 1.55
 155  0.791  0.958  0.459- 134 1.53  74 1.54  27 1.54 181 1.54
 156  0.795  0.961  0.795-  75 1.54 135 1.54  28 1.54 182 1.56
 157  0.789  0.294  0.125-  20 1.53 183 1.53  76 1.53 127 1.54
 158  0.791  0.292  0.458- 184 1.54 128 1.54  21 1.54  77 1.54
 159  0.791  0.293  0.791- 185 1.53  78 1.54 129 1.54  22 1.54
 160  0.792  0.625  0.126-  79 1.53 186 1.54 130 1.54  23 1.54
 161  0.792  0.625  0.459- 131 1.53 187 1.53  24 1.54  80 1.54
 162  0.793  0.627  0.793- 188 1.53 132 1.54  25 1.54  81 1.55
 163  0.041  0.041  0.375-  29 1.53 190 1.53  83 1.54 137 1.54
 164  0.042  0.042  0.708-  30 1.53 191 1.53 138 1.55  84 1.55
 165  0.041  0.375  0.041-  31 1.53 139 1.53 192 1.54  85 1.54
 166  0.041  0.374  0.374- 193 1.53 140 1.53  32 1.54  86 1.54
 167  0.042  0.376  0.707- 141 1.53 194 1.53  33 1.54  87 1.54
 168  0.042  0.708  0.042-  34 1.53 142 1.53 195 1.55  88 1.55
 169  0.042  0.707  0.376- 196 1.53 143 1.53  35 1.54  89 1.54
 170  0.043  0.709  0.709- 197 1.54 144 1.54  36 1.54  90 1.56
 171  0.375  0.041  0.041-  37 1.53  91 1.53 145 1.54 198 1.54
 172  0.374  0.041  0.374- 199 1.53  92 1.53  38 1.54 146 1.54
 173  0.376  0.042  0.707-  93 1.53 200 1.53  39 1.54 147 1.54
 174  0.374  0.374  0.041-  94 1.53 148 1.53  40 1.54 201 1.54
 175  0.374  0.374  0.374- 202 1.54 149 1.54  95 1.54  41 1.54
 176  0.375  0.375  0.708-  96 1.54 150 1.54 203 1.54  42 1.54
 177  0.376  0.707  0.042-  97 1.53 151 1.53  43 1.54 204 1.54
 178  0.375  0.708  0.375- 205 1.54  98 1.54 152 1.54  44 1.54
 179  0.376  0.708  0.708-  99 1.53 206 1.53 153 1.53  45 1.54
 180  0.708  0.042  0.042-  46 1.53 100 1.53 154 1.55 207 1.55
 181  0.707  0.042  0.376- 208 1.53 101 1.53  47 1.54 155 1.54
 182  0.709  0.043  0.709- 209 1.54 102 1.54  48 1.54 156 1.56
 183  0.707  0.376  0.042- 157 1.53 103 1.53  49 1.54 210 1.54
 184  0.708  0.375  0.375- 211 1.54 158 1.54 104 1.54  50 1.54
 185  0.708  0.376  0.708- 159 1.53 212 1.53 105 1.53  51 1.54
 186  0.709  0.709  0.043- 106 1.54 160 1.54  52 1.54 213 1.56
 187  0.708  0.708  0.376- 214 1.53 161 1.53 107 1.53  53 1.54
 188  0.709  0.709  0.709- 215 1.53 162 1.53 108 1.53  54 1.54
 189  0.126  0.126  0.948-  57 1.51 111 1.51   2 1.54   1 1.98
 190  0.123  0.123  0.289- 163 1.53 109 1.54  55 1.54   3 1.55
 191  0.125  0.125  0.624- 164 1.53   4 1.54 110 1.54  56 1.54
 192  0.125  0.458  0.958- 114 1.53   5 1.54  60 1.54 165 1.54
 193  0.125  0.457  0.291- 112 1.53 166 1.53  58 1.54   6 1.54
 194  0.125  0.459  0.624- 167 1.53 113 1.53   7 1.54  59 1.54
 195  0.129  0.789  0.958- 117 1.51   8 1.52  63 1.53 168 1.55
 196  0.125  0.789  0.294- 115 1.53 169 1.53   9 1.53  61 1.54
 197  0.126  0.792  0.625-  10 1.53 170 1.54  62 1.54 116 1.54
 198  0.458  0.125  0.958-  66 1.53  11 1.54 120 1.54 171 1.54
 199  0.457  0.125  0.291-  64 1.53 172 1.53 118 1.54  12 1.54
 200  0.459  0.125  0.624- 173 1.53  65 1.53  13 1.54 119 1.54
 201  0.458  0.458  0.958-  69 1.53 123 1.53  14 1.54 174 1.54
 202  0.458  0.458  0.292-  67 1.53 121 1.53 175 1.54  15 1.54
 203  0.459  0.459  0.625-  68 1.54 122 1.54 176 1.54  16 1.54
 204  0.459  0.791  0.958-  72 1.53  17 1.54 126 1.54 177 1.54
 205  0.458  0.791  0.292- 178 1.54  70 1.54 124 1.54  18 1.54
 206  0.459  0.792  0.625-  71 1.53 179 1.53 125 1.54  19 1.54
 207  0.789  0.129  0.958-  75 1.51  20 1.52 129 1.53 180 1.55
 208  0.789  0.125  0.294-  73 1.53 181 1.53  21 1.53 127 1.54
 209  0.792  0.126  0.625-  22 1.53 182 1.54 128 1.54  74 1.54
 210  0.791  0.459  0.958- 132 1.53  23 1.54  78 1.54 183 1.54
 211  0.791  0.458  0.292- 184 1.54 130 1.54  76 1.54  24 1.54
 212  0.792  0.459  0.625- 131 1.53 185 1.53  77 1.54  25 1.54
 213  0.795  0.795  0.961-  26 1.54  81 1.54 135 1.54 186 1.56
 214  0.791  0.791  0.293- 187 1.53  27 1.54 133 1.54  79 1.54
 215  0.793  0.793  0.627- 188 1.53 134 1.54  80 1.54  28 1.55
 

IMPORTANT INFORMATION: All symmetrisations will be switched off!
NOSYMM: (Re-)initialisation of all symmetry stuff for point group C_1.

 
 
 KPOINTS: pymatgen v1.1 with grid density = 2210 /

Automatic generation of k-mesh.
Space group operators:
 irot       det(A)        alpha          n_x          n_y          n_z        tau_x        tau_y        tau_z
    1     1.000000     0.000000     1.000000     0.000000     0.000000     0.000000     0.000000     0.000000
 
 Subroutine IBZKPT returns following result:
 ===========================================
 
 Found      1 irreducible k-points:
 
 Following reciprocal coordinates:
            Coordinates               Weight
  0.000000  0.000000  0.000000      1.000000
 
 Following cartesian coordinates:
            Coordinates               Weight
  0.000000  0.000000  0.000000      1.000000
 
 
 Subroutine IBZKPT_HF returns following result:
 ==============================================
 
 Found      1 k-points in 1st BZ
 the following      1 k-points will be used (e.g. in the exchange kernel)
 Following reciprocal coordinates:   # in IRBZ
  0.000000  0.000000  0.000000    1.00000000   1 t-inv F


--------------------------------------------------------------------------------------------------------




 Dimension of arrays:
   k-points           NKPTS =      1   k-points in BZ     NKDIM =      1   number of bands    NBANDS=    608
   number of dos      NEDOS =    301   number of ions     NIONS =    215
   non local maximal  LDIM  =      4   non local SUM 2l+1 LMDIM =      8
   total plane-waves  NPLWV = 343000
   max r-space proj   IRMAX =   3182   max aug-charges    IRDMAX=   9703
   dimension x,y,z NGX =    70 NGY =   70 NGZ =   70
   dimension x,y,z NGXF=   140 NGYF=  140 NGZF=  140
   support grid    NGXF=   140 NGYF=  140 NGZF=  140
   ions per type =               1 214
   NGX,Y,Z   is equivalent  to a cutoff of  10.93, 10.93, 10.93 a.u.
   NGXF,Y,Z  is equivalent  to a cutoff of  21.86, 21.86, 21.86 a.u.

 SYSTEM =  unknown system                          
 POSCAR =  generated by phonopy                    

 Startparameter for this run:
   NWRITE =      2    write-flag & timer
   PREC   = accura    normal or accurate (medium, high low for compatibility)
   ISTART =      1    job   : 0-new  1-cont  2-samecut
   ICHARG =      2    charge: 1-file 2-atom 10-const
   ISPIN  =      2    spin polarized calculation?
   LNONCOLLINEAR =      F non collinear calculations
   LSORBIT =      F    spin-orbit coupling
   INIWAV =      1    electr: 0-lowe 1-rand  2-diag
   LASPH  =      F    aspherical Exc in radial PAW
   METAGGA=      F    non-selfconsistent MetaGGA calc.

 Electronic Relaxation 1
   ENCUT  =  400.0 eV  29.40 Ry    5.42 a.u.  17.36 17.36 17.36*2*pi/ulx,y,z
   ENINI  =  400.0     initial cutoff
   ENAUG  =  644.9 eV  augmentation charge cutoff
   NELM   =    100;   NELMIN=  2; NELMDL=  0     # of ELM steps 
   EDIFF  = 0.1E-04   stopping-criterion for ELM
   LREAL  =      T    real-space projection
   NLSPLINE    = F    spline interpolate recip. space projectors
   LCOMPAT=      F    compatible to vasp.4.4
   GGA_COMPAT  = T    GGA compatible to vasp.4.4-vasp.4.6
   LMAXPAW     = -100 max onsite density
   LMAXMIX     =    2 max onsite mixed and CHGCAR
   VOSKOWN=      0    Vosko Wilk Nusair interpolation
   ROPT   =   -0.00025  -0.00025
 Ionic relaxation
   EDIFFG = -.1E-01   stopping-criterion for IOM
   NSW    =     99    number of steps for IOM
   NBLOCK =      1;   KBLOCK =     99    inner block; outer block 
   IBRION =      2    ionic relax: 0-MD 1-quasi-New 2-CG
   NFREE  =      1    steps in history (QN), initial steepest desc. (CG)
   ISIF   =      2    stress and relaxation
   IWAVPR =     11    prediction:  0-non 1-charg 2-wave 3-comb
   ISYM   =      0    0-nonsym 1-usesym 2-fastsym
   LCORR  =      T    Harris-Foulkes like correction to forces

   POTIM  = 0.5000    time-step for ionic-motion
   TEIN   =    0.0    initial temperature
   TEBEG  =    0.0;   TEEND  =   0.0 temperature during run
   SMASS  =  -3.00    Nose mass-parameter (am)
   estimated Nose-frequenzy (Omega)   =  0.10E-29 period in steps =****** mass=  -0.259E-26a.u.
   SCALEE = 1.0000    scale energy and forces
   NPACO  =    256;   APACO  = 16.0  distance and # of slots for P.C.
   PSTRESS=    0.0 pullay stress

  Mass of Ions in am
   POMASS =  28.09 12.01
  Ionic Valenz
   ZVAL   =   4.00  4.00
  Atomic Wigner-Seitz radii
   RWIGS  =  -1.00 -1.00
  virtual crystal weights 
   VCA    =   1.00  1.00
   NELECT =     860.0000    total number of electrons
   NUPDOWN=       2.0000    fix difference up-down

 DOS related values:
   EMIN   =  10.00;   EMAX   =-10.00  energy-range for DOS
   EFERMI =   0.00
   ISMEAR =    -2;   SIGMA  =   0.05  broadening in eV -4-tet -1-fermi 0-gaus

 Electronic relaxation 2 (details)
   IALGO  =     58    algorithm
   LDIAG  =      F    sub-space diagonalisation (order eigenvalues)
   LSUBROT=      F    optimize rotation matrix (better conditioning)
   TURBO    =      0    0=normal 1=particle mesh
   IRESTART =      0    0=no restart 2=restart with 2 vectors
   NREBOOT  =      0    no. of reboots
   NMIN     =      0    reboot dimension
   EREF     =   0.00    reference energy to select bands
   IMIX   =      4    mixing-type and parameters
     AMIX     =   0.40;   BMIX     =  1.00
     AMIX_MAG =   1.60;   BMIX_MAG =  1.00
     AMIN     =   0.10
     WC   =   100.;   INIMIX=   1;  MIXPRE=   1;  MAXMIX= -45

 Intra band minimization:
   WEIMIN = 0.0010     energy-eigenvalue tresh-hold
   EBREAK =  0.41E-08  absolut break condition
   DEPER  =   0.30     relativ break condition  

   TIME   =   0.40     timestep for ELM

  volume/ion in A,a.u.               =       5.61        37.87
  Fermi-wavevector in a.u.,A,eV,Ry     =   1.462352  2.763445 29.095711  2.138474
  Thomas-Fermi vector in A             =   2.578576
 
 Write flags
   LWAVE        =      T    write WAVECAR
   LDOWNSAMPLE  =      F    k-point downsampling of WAVECAR
   LCHARG       =      F    write CHGCAR
   LVTOT        =      F    write LOCPOT, total local potential
   LVHAR        =      F    write LOCPOT, Hartree potential only
   LELF         =      F    write electronic localiz. function (ELF)
   LORBIT       =     11    0 simple, 1 ext, 2 COOP (PROOUT), +10 PAW based schemes


 Dipole corrections
   LMONO  =      F    monopole corrections only (constant potential shift)
   LDIPOL =      F    correct potential (dipole corrections)
   IDIPOL =      0    1-x, 2-y, 3-z, 4-all directions 
   EPSILON=  1.0000000 bulk dielectric constant

 Exchange correlation treatment:
   GGA     =    --    GGA type
   LEXCH   =     8    internal setting for exchange type
   VOSKOWN=      0    Vosko Wilk Nusair interpolation
   EXXOEP  =     0    0=HF, 1=EXX-LHF (local Hartree Fock) 2=EXX OEP
   LHFCALC =     T    Hartree Fock is set to
   LSYMGRAD=     F    symmetrize gradient (conserves proper symmetry)
   PRECFOCK=fast      Normal, Fast or Accurate (Low or Medium for compatibility)
   LRHFCALC=     F    long range Hartree Fock
   LRSCOR  =     F    long range correlation only (use DFT for short range part)
   LTHOMAS =     F    Thomas Fermi screening in HF
   LMODELHF=     F    short range full HF, long range fraction AEXX
   ENCUT4O =  -1.0   cutoff for four orbital integrals eV
   LMAXFOCK=     4    L truncation for augmentation on plane wave grid
   LMAXFOCKAE=  -1    L truncation for all-electron charge restoration on plane wave grid
   NMAXFOCKAE=   1    number of basis functions for all-electron charge restoration
   LFOCKAEDFT=     F  apply the AE augmentation even for DFT
   NKREDX  =     1    reduce k-point grid by
   NKREDY  =     1    reduce k-point grid by
   NKREDZ  =     1    reduce k-point grid by
   SHIFTRED=     F    shift reduced grid of Gamma
   HFKIDENT=     F    idential grid for each k-point
   ODDONLY =     F    use only odd q-grid points
   EVENONLY=     F    use only even q-grid points
   HFALPHA =   -1.0000 decay constant for conv. correction
   MCALPHA =    0.0000 extent of test-charge in conv. correction in multipole expansion
   AEXX    =    0.2500 exact exchange contribution
   HFSCREEN=    0.2000 screening length (either q_TF or 0.3 A-1)
   HFSCREENC=   0.2000 screening length for correlation (either q_TF or 0.3 A-1)
   HFRCUT  =    0.0000 spherical cutoff for potential kernel
   ALDAX   =    0.7500 LDA exchange part
   AGGAX   =    0.7500 GGA exchange part
   ALDAC   =    1.0000 LDA correlation
   AGGAC   =    1.0000 GGA correlation
   ENCUTFOCK=  -1.0 apply spherical cutoff to Coloumb kernel
   NBANDSGWLOW=     1    first orbital included in HF term
   NBLOCK_FOCK=    64    blocking factor in FOCK_ACC
 Linear response parameters
   LEPSILON=     F    determine dielectric tensor
   LRPA    =     F    only Hartree local field effects (RPA)
   LNABLA  =     F    use nabla operator in PAW spheres
   LVEL    =     F    velocity operator in full k-point grid
   LINTERFAST=   F  fast interpolation
   KINTER  =     0    interpolate to denser k-point grid
   CSHIFT  =0.1000    complex shift for real part using Kramers Kronig
   OMEGAMAX=  -1.0    maximum frequency
   DEG_THRESHOLD= 0.2000000E-02 threshold for treating states as degnerate
   RTIME   =   -0.100 relaxation time in fs
  (WPLASMAI=    0.000 imaginary part of plasma frequency in eV, 0.658/RTIME)
   DFIELD  = 0.0000000 0.0000000 0.0000000 field for delta impulse in time
 
 Orbital magnetization related:
   ORBITALMAG=     F  switch on orbital magnetization
   LCHIMAG   =     F  perturbation theory with respect to B field
   DQ        =  0.001000  dq finite difference perturbation B field
   LLRAUG    =     F  two centre corrections for induced B field



--------------------------------------------------------------------------------------------------------


 conjugate gradient relaxation of ions
 charge density and potential will be updated during run
 spin polarized calculation
 Conjugate gradient for all bands (Kresse, et al. variant)
 preconditioned conjugated gradient                                        
 perform Loewdin sub-space diagonalisation
    ordering is kept fixed
    before iterative eigenvector-optimisation
 modified Broyden-mixing scheme, WC =      100.0
 initial mixing is a Kerker type mixing with AMIX =  0.4000 and BMIX =      1.0000
 Hartree-type preconditioning will be used
 using additional bands           178
 real space projection scheme for non local part
 use partial core corrections
 no Harris-corrections to forces 
 use gradient corrections 
 use of overlap-Matrix (Vanderbilt PP)
 partial occupancies read from INCAR or WAVECAR (fixed during run)


--------------------------------------------------------------------------------------------------------


  energy-cutoff  :      400.00
  volume of cell :     1206.61
      direct lattice vectors                 reciprocal lattice vectors
     7.527901926  4.346236203  6.146506184     0.066419569  0.038347356  0.054231351
    -7.527901926  4.346236203  6.146506184    -0.066419569  0.038347356  0.054231351
    -0.000000000 -8.692472407  6.146506184     0.000000000 -0.076694712  0.054231351

  length of vectors
    10.646061000 10.646061000 10.646061000     0.093931455  0.093931455  0.093931455


 
 old parameters found on file WAVECAR:
  energy-cutoff  :      400.00
  volume of cell :     1206.61
      direct lattice vectors                 reciprocal lattice vectors
     7.527901926  4.346236203  6.146506184     0.066419569  0.038347356  0.054231351
    -7.527901926  4.346236203  6.146506184    -0.066419569  0.038347356  0.054231351
    -0.000000000 -8.692472407  6.146506184     0.000000000 -0.076694712  0.054231351

  length of vectors

 
 k-points in units of 2pi/SCALE and weight: pymatgen v1.1 with grid density = 2210 /
   0.00000000  0.00000000  0.00000000       1.000
 
 k-points in reciprocal lattice and weights: pymatgen v1.1 with grid density = 2210 /
   0.00000000  0.00000000  0.00000000       1.000
 
 position of ions in fractional coordinates (direct lattice) 
   0.00000000  0.00000000  0.00000000
   0.20523706  0.20523706  0.03907120
   0.20719807  0.20719807  0.37323555
   0.20880015  0.20880015  0.70709406
   0.20851414  0.54088306  0.04153516
   0.20821001  0.54072312  0.37471960
   0.20878162  0.54151212  0.70783595
   0.21092373  0.87111898  0.04180582
   0.20836162  0.87414202  0.37523652
   0.21063151  0.87457206  0.70624268
   0.54088306  0.20851414  0.04153516
   0.54072312  0.20821001  0.37471960
   0.54151212  0.20878162  0.70783595
   0.54172676  0.54172676  0.04185156
   0.54143265  0.54143265  0.37513137
   0.54213628  0.54213628  0.70840308
   0.54187583  0.87504318  0.04197505
   0.54133188  0.87475338  0.37581574
   0.54282232  0.87537489  0.70891527
   0.87111898  0.21092373  0.04180582
   0.87414202  0.20836162  0.37523652
   0.87457206  0.21063151  0.70624268
   0.87504318  0.54187583  0.04197505
   0.87475338  0.54133188  0.37581574
   0.87537489  0.54282232  0.70891527
   0.87382210  0.87382210  0.05213185
   0.87468421  0.87468421  0.37585623
   0.87692300  0.87692300  0.71062135
   0.95768266  0.95768266  0.29230318
   0.95898502  0.95898502  0.62544500
   0.95768266  0.29230318  0.95768266
   0.95715206  0.29094355  0.29094355
   0.95828690  0.29296320  0.62374209
   0.95898502  0.62544500  0.95898502
   0.95828690  0.62374209  0.29296320
   0.95883322  0.62575745  0.62575745
   0.29230318  0.95768266  0.95768266
   0.29094355  0.95715206  0.29094355
   0.29296320  0.95828690  0.62374209
   0.29094355  0.29094355  0.95715206
   0.29060861  0.29060861  0.29060861
   0.29183415  0.29183415  0.62393941
   0.29296320  0.62374209  0.95828690
   0.29183415  0.62393941  0.29183415
   0.29221657  0.62490576  0.62490576
   0.62544500  0.95898502  0.95898502
   0.62374209  0.95828690  0.29296320
   0.62575745  0.95883322  0.62575745
   0.62374209  0.29296320  0.95828690
   0.62393941  0.29183415  0.29183415
   0.62490576  0.29221657  0.62490576
   0.62575745  0.62575745  0.95883322
   0.62490576  0.62490576  0.29221657
   0.62563682  0.62563682  0.62563682
   0.20523706  0.03907120  0.20523706
   0.20851414  0.04153516  0.54088306
   0.21092373  0.04180582  0.87111898
   0.20719807  0.37323555  0.20719807
   0.20821001  0.37471960  0.54072312
   0.20836162  0.37523652  0.87414202
   0.20880015  0.70709406  0.20880015
   0.20878162  0.70783595  0.54151212
   0.21063151  0.70624268  0.87457206
   0.54088306  0.04153516  0.20851414
   0.54172676  0.04185156  0.54172676
   0.54187583  0.04197505  0.87504318
   0.54072312  0.37471960  0.20821001
   0.54143265  0.37513137  0.54143265
   0.54133188  0.37581574  0.87475338
   0.54151212  0.70783595  0.20878162
   0.54213628  0.70840308  0.54213628
   0.54282232  0.70891527  0.87537489
   0.87111898  0.04180582  0.21092373
   0.87504318  0.04197505  0.54187583
   0.87382210  0.05213185  0.87382210
   0.87414202  0.37523652  0.20836162
   0.87475338  0.37581574  0.54133188
   0.87468421  0.37585623  0.87468421
   0.87457206  0.70624268  0.21063151
   0.87537489  0.70891527  0.54282232
   0.87692300  0.71062135  0.87692300
   0.94786815  0.12617790  0.12617790
   0.95802495  0.12495682  0.45812417
   0.95819418  0.12888102  0.78907627
   0.95802495  0.45812417  0.12495682
   0.95814844  0.45827324  0.45827324
   0.95846484  0.45911694  0.79148586
   0.95819418  0.78907627  0.12888102
   0.95846484  0.79148586  0.45911694
   0.96092880  0.79476294  0.79476294
   0.28937865  0.12307700  0.12307700
   0.29108473  0.12462511  0.45717768
   0.29375732  0.12542794  0.78936849
   0.29108473  0.45717768  0.12462511
   0.29159692  0.45786372  0.45786372
   0.29216405  0.45848788  0.79121838
   0.29375732  0.78936849  0.12542794
   0.29216405  0.79121838  0.45848788
   0.29290594  0.79119985  0.79119985
   0.62414377  0.12531579  0.12531579
   0.62418426  0.12524662  0.45866812
   0.62476348  0.12585798  0.79163838
   0.62418426  0.45866812  0.12524662
   0.62486863  0.45856735  0.45856735
   0.62528040  0.45927688  0.79178999
   0.62476348  0.79163838  0.12585798
   0.62528040  0.79178999  0.45927688
   0.62676445  0.79280193  0.79280193
   0.03907120  0.20523706  0.20523706
   0.04153516  0.20851414  0.54088306
   0.04180582  0.21092373  0.87111898
   0.04153516  0.54088306  0.20851414
   0.04185156  0.54172676  0.54172676
   0.04197505  0.54187583  0.87504318
   0.04180582  0.87111898  0.21092373
   0.04197505  0.87504318  0.54187583
   0.05213185  0.87382210  0.87382210
   0.37323555  0.20719807  0.20719807
   0.37471960  0.20821001  0.54072312
   0.37523652  0.20836162  0.87414202
   0.37471960  0.54072312  0.20821001
   0.37513137  0.54143265  0.54143265
   0.37581574  0.54133188  0.87475338
   0.37523652  0.87414202  0.20836162
   0.37581574  0.87475338  0.54133188
   0.37585623  0.87468421  0.87468421
   0.70709406  0.20880015  0.20880015
   0.70783595  0.20878162  0.54151212
   0.70624268  0.21063151  0.87457206
   0.70783595  0.54151212  0.20878162
   0.70840308  0.54213628  0.54213628
   0.70891527  0.54282232  0.87537489
   0.70624268  0.87457206  0.21063151
   0.70891527  0.87537489  0.54282232
   0.71062135  0.87692300  0.87692300
   0.12617790  0.94786815  0.12617790
   0.12495682  0.95802495  0.45812417
   0.12888102  0.95819418  0.78907627
   0.12307700  0.28937865  0.12307700
   0.12462511  0.29108473  0.45717768
   0.12542794  0.29375732  0.78936849
   0.12531579  0.62414377  0.12531579
   0.12524662  0.62418426  0.45866812
   0.12585798  0.62476348  0.79163838
   0.45812417  0.95802495  0.12495682
   0.45827324  0.95814844  0.45827324
   0.45911694  0.95846484  0.79148586
   0.45717768  0.29108473  0.12462511
   0.45786372  0.29159692  0.45786372
   0.45848788  0.29216405  0.79121838
   0.45866812  0.62418426  0.12524662
   0.45856735  0.62486863  0.45856735
   0.45927688  0.62528040  0.79178999
   0.78907627  0.95819418  0.12888102
   0.79148586  0.95846484  0.45911694
   0.79476294  0.96092880  0.79476294
   0.78936849  0.29375732  0.12542794
   0.79121838  0.29216405  0.45848788
   0.79119985  0.29290594  0.79119985
   0.79163838  0.62476348  0.12585798
   0.79178999  0.62528040  0.45927688
   0.79280193  0.62676445  0.79280193
   0.04101498  0.04101498  0.37455500
   0.04231734  0.04231734  0.70769682
   0.04101498  0.37455500  0.04101498
   0.04116678  0.37424255  0.37424255
   0.04171310  0.37625791  0.70703680
   0.04231734  0.70769682  0.04231734
   0.04171310  0.70703680  0.37625791
   0.04284794  0.70905645  0.70905645
   0.37455500  0.04101498  0.04101498
   0.37424255  0.04116678  0.37424255
   0.37625791  0.04171310  0.70703680
   0.37424255  0.37424255  0.04116678
   0.37436318  0.37436318  0.37436318
   0.37509424  0.37509424  0.70778343
   0.37625791  0.70703680  0.04171310
   0.37509424  0.70778343  0.37509424
   0.37606059  0.70816585  0.70816585
   0.70769682  0.04231734  0.04231734
   0.70703680  0.04171310  0.37625791
   0.70905645  0.04284794  0.70905645
   0.70703680  0.37625791  0.04171310
   0.70778343  0.37509424  0.37509424
   0.70816585  0.37606059  0.70816585
   0.70905645  0.70905645  0.04284794
   0.70816585  0.70816585  0.37606059
   0.70939139  0.70939139  0.70939139
   0.12617790  0.12617790  0.94786815
   0.12307700  0.12307700  0.28937865
   0.12531579  0.12531579  0.62414377
   0.12495682  0.45812417  0.95802495
   0.12462511  0.45717768  0.29108473
   0.12524662  0.45866812  0.62418426
   0.12888102  0.78907627  0.95819418
   0.12542794  0.78936849  0.29375732
   0.12585798  0.79163838  0.62476348
   0.45812417  0.12495682  0.95802495
   0.45717768  0.12462511  0.29108473
   0.45866812  0.12524662  0.62418426
   0.45827324  0.45827324  0.95814844
   0.45786372  0.45786372  0.29159692
   0.45856735  0.45856735  0.62486863
   0.45911694  0.79148586  0.95846484
   0.45848788  0.79121838  0.29216405
   0.45927688  0.79178999  0.62528040
   0.78907627  0.12888102  0.95819418
   0.78936849  0.12542794  0.29375732
   0.79163838  0.12585798  0.62476348
   0.79148586  0.45911694  0.95846484
   0.79121838  0.45848788  0.29216405
   0.79178999  0.45927688  0.62528040
   0.79476294  0.79476294  0.96092880
   0.79119985  0.79119985  0.29290594
   0.79280193  0.79280193  0.62676445
 
 position of ions in cartesian coordinates  (Angst):
   0.00000000  0.00000000  0.00000000
   0.00000000  1.44439215  2.76313303
  -0.00000000 -1.44327621  4.84118298
  -0.00000000 -4.33140607  6.91294077
  -2.50204060  2.89601400  4.86147065
  -2.50312609 -0.00219952  6.90653848
  -2.50476261 -2.89189064  8.96240311
  -4.96988509  4.33941725  6.90774189
  -5.01192955  1.44308336  8.96000892
  -4.99807939 -1.42244392 11.01113545
   2.50204060  2.89601400  4.86147065
   2.50312609 -0.00219952  6.90653848
   2.50476261 -2.89189064  8.96240311
   0.00000000  4.34515144  6.91669463
   0.00000000  1.44556927  8.96158555
  -0.00000000 -1.44526957 11.01869193
  -2.50805112  5.79339774  8.96710142
  -2.50996436  2.88787307 11.01393057
  -2.50342306  0.00159361 13.07431003
   4.96988509  4.33941725  6.90774189
   5.01192955  1.44308336  8.96000892
   4.99807939 -1.42244392 11.01113545
   2.50805112  5.79339774  8.96710142
   2.50996436  2.88787307 11.01393057
   2.50342306  0.00159361 13.07431003
   0.00000000  7.14251989 11.06233466
   0.00000000  4.33604845 13.06270648
   0.00000000  1.44557245 15.14786381
   0.00000000  5.78379280 13.56944815
   0.00000000  2.89928745 15.63311623
   5.00891149 -2.89189640 13.56944815
   5.01515238  2.89549957  9.45971368
   5.00849154  0.01636755 11.52465111
   2.51085658 -1.44964372 15.63311623
   2.51842049  4.32929713 11.52465111
   2.50736174  1.44762598 13.58591834
  -5.00891149 -2.89189640 13.56944815
  -5.01515238  2.89549957  9.45971368
  -5.00849154  0.01636755 11.52465111
  -0.00000000 -5.79099915  9.45971368
  -0.00000000 -0.00000000  5.35868286
  -0.00000000 -2.88681581  7.42256823
  -2.49007106 -4.34566469 11.52465111
  -2.50005583  1.44340791  7.42256823
  -2.50445159 -1.44594580  9.47808512
  -2.51085658 -1.44964372 15.63311623
  -2.51842049  4.32929713 11.52465111
  -2.50736174  1.44762598 13.58591834
   2.49007106 -4.34566469 11.52465111
   2.50005583  1.44340791  7.42256823
   2.50445159 -1.44594580  9.47808512
  -0.00000000 -2.89525196 13.58591834
   0.00000000  2.89189161  9.47808512
   0.00000000 -0.00000000 11.53644182
   1.25088030 -0.72219608  2.76313303
   1.25700139 -3.61483772  4.86147065
   1.27310303 -6.47375536  6.90774189
  -1.24991386  0.72163810  4.84118298
  -1.25346789 -2.16667102  6.90653848
  -1.25621792 -5.06200000  8.96000892
  -3.75110769  2.16570304  6.91294077
  -3.75683206 -0.72324273  8.96240311
  -3.73091226 -3.61724176 11.01113545
   3.75904200  0.71882372  4.86147065
   3.76301153 -2.17257572  6.91669463
   3.76320406 -5.06873485  8.96710142
   1.24965820  2.16887054  6.90653848
   1.25189971 -0.72278464  8.96158555
   1.24598926 -3.61762943 11.01393057
  -1.25206945  3.61513337  8.96240311
  -1.25164016  0.72263479 11.01869193
  -1.25033142 -2.16882477 13.07431003
   6.24298811  2.13433812  6.90774189
   6.27125518 -0.72466289  8.96710142
   6.18560368 -3.57125995 11.06233466
   3.75571163  3.61891663  8.96000892
   3.75595362  0.72975636 11.01393057
   3.75512811 -2.16802422 13.06270648
   1.26716712  5.03968568 11.01113545
   1.25309164  2.16723116 13.07431003
   1.25190247 -0.72278623 15.14786381
   6.18560368  3.57125995  7.37718389
   6.27125518  0.72466289  9.47241713
   6.24298811 -2.13433812 11.53177666
   3.76320406  5.06873485  9.47241713
   3.76301153  2.17257572 11.52282392
   3.75904200 -0.71882372 13.57804790
   1.27310303  6.47375536 11.53177666
   1.25700139  3.61483772 13.57804790
   1.25088030  0.72219608 15.67638552
   1.25190247  0.72278623  3.29165474
   1.25309164 -2.16723116  5.36520852
   1.26716712 -5.03968568  7.42838310
  -1.25033142  2.16882477  5.36520852
  -1.25164016 -0.72263479  7.42082662
  -1.25206945 -3.61513337  9.47711544
  -3.73091226  3.61724176  7.42838310
  -3.75683206  0.72324273  9.47711544
  -3.75110769 -2.16570304 11.52657779
   3.75512811  2.16802422  5.37681207
   3.75595362 -0.72975636  7.42558798
   3.75571163 -3.61891663  9.47950963
   1.24598926  3.61762943  7.42558798
   1.25189971  0.72278464  9.47793301
   1.24965820 -2.16887054 11.53298007
  -1.25621792  5.06200000  9.47950963
  -1.25346789  2.16667102 11.53298007
  -1.24991386 -0.72163810 13.59833557
  -1.25088030 -0.72219608  2.76313303
  -1.25700139 -3.61483772  4.86147065
  -1.27310303 -6.47375536  6.90774189
  -3.75904200  0.71882372  4.86147065
  -3.76301153 -2.17257572  6.91669463
  -3.76320406 -5.06873485  8.96710142
  -6.24298811  2.13433812  6.90774189
  -6.27125518 -0.72466289  8.96710142
  -6.18560368 -3.57125995 11.06233466
   1.24991386  0.72163810  4.84118298
   1.25346789 -2.16667102  6.90653848
   1.25621792 -5.06200000  8.96000892
  -1.24965820  2.16887054  6.90653848
  -1.25189971 -0.72278464  8.96158555
  -1.24598926 -3.61762943 11.01393057
  -3.75571163  3.61891663  8.96000892
  -3.75595362  0.72975636 11.01393057
  -3.75512811 -2.16802422 13.06270648
   3.75110769  2.16570304  6.91294077
   3.75683206 -0.72324273  8.96240311
   3.73091226 -3.61724176 11.01113545
   1.25206945  3.61513337  8.96240311
   1.25164016  0.72263479 11.01869193
   1.25033142 -2.16882477 13.07431003
  -1.26716712  5.03968568 11.01113545
  -1.25309164  2.16723116 13.07431003
  -1.25190247 -0.72278623 15.14786381
  -6.18560368  3.57125995  7.37718389
  -6.27125518  0.72466289  9.47241713
  -6.24298811 -2.13433812 11.53177666
  -1.25190247  0.72278623  3.29165474
  -1.25309164 -2.16723116  5.36520852
  -1.26716712 -5.03968568  7.42838310
  -3.75512811  2.16802422  5.37681207
  -3.75595362 -0.72975636  7.42558798
  -3.75571163 -3.61891663  9.47950963
  -3.76320406  5.06873485  9.47241713
  -3.76301153  2.17257572 11.52282392
  -3.75904200 -0.71882372 13.57804790
   1.25033142  2.16882477  5.36520852
   1.25164016 -0.72263479  7.42082662
   1.25206945 -3.61513337  9.47711544
  -1.24598926  3.61762943  7.42558798
  -1.25189971  0.72278464  9.47793301
  -1.24965820 -2.16887054 11.53298007
  -1.27310303  6.47375536 11.53177666
  -1.25700139  3.61483772 13.57804790
  -1.25088030  0.72219608 15.67638552
   3.73091226  3.61724176  7.42838310
   3.75683206  0.72324273  9.47711544
   3.75110769 -2.16570304 11.52657779
   1.25621792  5.06200000  9.47950963
   1.25346789  2.16667102 11.53298007
   1.24991386 -0.72163810 13.59833557
  -0.00000000 -2.89928745  2.80640232
  -0.00000000 -5.78379280  4.87007040
  -2.51085658  1.44964372  2.80640232
  -2.50736174 -1.44762598  4.85360021
  -2.51842049 -4.32929713  6.91486744
  -5.00891149  2.89189640  4.87007040
  -5.00849154 -0.01636755  6.91486744
  -5.01515238 -2.89549957  8.97980487
   2.51085658  1.44964372  2.80640232
   2.50736174 -1.44762598  4.85360021
   2.51842049 -4.32929713  6.91486744
   0.00000000  2.89525196  4.85360021
   0.00000000 -0.00000000  6.90307674
  -0.00000000 -2.89189161  8.96143343
  -2.49007106  4.34566469  6.91486744
  -2.50445159  1.44594580  8.96143343
  -2.50005583 -1.44340791 11.01695032
   5.00891149  2.89189640  4.87007040
   5.00849154 -0.01636755  6.91486744
   5.01515238 -2.89549957  8.97980487
   2.49007106  4.34566469  6.91486744
   2.50445159  1.44594580  8.96143343
   2.50005583 -1.44340791 11.01695032
   0.00000000  5.79099915  8.97980487
   0.00000000  2.88681581 11.01695032
   0.00000000 -0.00000000 13.08083569
  -0.00000000 -7.14251989  7.37718389
  -0.00000000 -1.44557245  3.29165474
  -0.00000000 -4.33604845  5.37681207
  -2.50805112 -5.79339774  9.47241713
  -2.50342306 -0.00159361  5.36520852
  -2.50996436 -2.88787307  7.42558798
  -4.96988509 -4.33941725 11.53177666
  -4.99807939  1.42244392  7.42838310
  -5.01192955 -1.44308336  9.47950963
   2.50805112 -5.79339774  9.47241713
   2.50342306 -0.00159361  5.36520852
   2.50996436 -2.88787307  7.42558798
  -0.00000000 -4.34515144 11.52282392
   0.00000000  1.44526957  7.42082662
   0.00000000 -1.44556927  9.47793301
  -2.50204060 -2.89601400 13.57804790
  -2.50476261  2.89189064  9.47711544
  -2.50312609  0.00219952 11.53298007
   4.96988509 -4.33941725 11.53177666
   4.99807939  1.42244392  7.42838310
   5.01192955 -1.44308336  9.47950963
   2.50204060 -2.89601400 13.57804790
   2.50476261  2.89189064  9.47711544
   2.50312609  0.00219952 11.53298007
  -0.00000000 -1.44439215 15.67638552
   0.00000000  4.33140607 11.52657779
   0.00000000  1.44327621 13.59833557
 


--------------------------------------------------------------------------------------------------------


 use parallel FFT for orbitals z direction half grid
 k-point  1 :   0.0000 0.0000 0.0000  plane waves:   10988

 maximum and minimum number of plane-waves per node :       696      679

 maximum number of plane-waves:     10988
 maximum index in each direction: 
   IXMAX=   17   IYMAX=   17   IZMAX=   17
   IXMIN=  -17   IYMIN=  -17   IZMIN=    0


 real space projection operators:
  total allocation   :      40841.81 KBytes
  max/ min on nodes  :       2928.50       2334.94


 parallel 3D FFT for wavefunctions:
    minimum data exchange during FFTs selected (reduces bandwidth)
 parallel 3D FFT for charge:
    minimum data exchange during FFTs selected (reduces bandwidth)


 FFT grid for exact exchange (Hartree Fock) 
  NGX = 36; NGY = 36; NGZ = 36

 use parallel FFT for orbitals z direction half grid
 
 Radii for the augmentation spheres in the non-local exchange
 for species   1 augmentation radius   1.055 (default was   0.989)
       energy cutoff for augmentation   1600.0
 for species   2 augmentation radius   0.795 (default was   0.699)
       energy cutoff for augmentation   1600.0

 real space projection operators:
  total allocation   :       1318.99 KBytes
  max/ min on nodes  :        110.25         69.47

 Maximum index for augmentation-charges in exchange            37
  SETUP_FOCK is finished

 total amount of memory used by VASP MPI-rank0    40004. kBytes
=======================================================================

   base      :      30000. kBytes
   nonlr-proj:       3647. kBytes
   fftplans  :       1350. kBytes
   grid      :       3557. kBytes
   one-center:         43. kBytes
   HF        :          9. kBytes
   wavefun   :       1398. kBytes
 
     INWAV:  cpu time    0.4166: real time    0.4202
 Broyden mixing: mesh for mixing (old mesh)
   NGX = 35   NGY = 35   NGZ = 35
  (NGX  =140   NGY  =140   NGZ  =140)
  gives a total of  42875 points

 initial charge density was supplied:
 charge density of overlapping atoms calculated
 number of electron     860.0000000 magnetization     129.0000000
 charge density for first step will be calculated from the start-wavefunctions


--------------------------------------------------------------------------------------------------------


 Maximum index for non-local projection operator           457
 Maximum index for augmentation-charges           529 (set IRDMAX)


--------------------------------------------------------------------------------------------------------


 initial charge from wavefunction
 First call to EWALD:  gamma=   0.166
 Maximum number of real-space cells 3x 3x 3
 Maximum number of reciprocal cells 3x 3x 3

    FEWALD:  cpu time    0.0106: real time    0.0106

 ----------------------------------------------------------------------------- 
|                                                                             |
|           W    W    AA    RRRRR   N    N  II  N    N   GGGG   !!!           |
|           W    W   A  A   R    R  NN   N  II  NN   N  G    G  !!!           |
|           W    W  A    A  R    R  N N  N  II  N N  N  G       !!!           |
|           W WW W  AAAAAA  RRRRR   N  N N  II  N  N N  G  GGG   !            |
|           WW  WW  A    A  R   R   N   NN  II  N   NN  G    G                |
|           W    W  A    A  R    R  N    N  II  N    N   GGGG   !!!           |
|                                                                             |
|      ALGO=A and IALGO=5X tend to fail with the tetrahedron method           |
|      (e.g. Bloechls method ISMEAR=-5 is not variational)                    |
|      please switch to IMSEAR=0-n, except for DOS calculations               |
|      For DOS calculations use IALGO=53 after preconverging with ISMEAR>=0   |
|          I HOPE YOU KNOW, WHAT YOU ARE  DOING                               |
|                                                                             |
 ----------------------------------------------------------------------------- 



--------------------------------------- Iteration      1(   1)  ---------------------------------------


    POTLOK:  cpu time    0.1489: real time    0.1490
    SETDIJ:  cpu time    0.0497: real time    0.0497
    TRIAL :  cpu time   10.2041: real time    9.8404
    CORREC:  cpu time    9.9840: real time    9.7268
    CHARGE:  cpu time    0.0277: real time    0.0278
    --------------------------------------------
      LOOP:  cpu time   20.4204: real time   19.8032

 eigenvalue-minimisations  :     0
 total energy-change (2. order) :-0.2406215E+04  (-0.2707830E+01)
 number of electron     859.9999991 magnetization       1.9999999
 augmentation part       19.9869912 magnetization       0.1298333

 Free energy of the ion-electron system (eV)
  ---------------------------------------------------
  alpha Z        PSCENC =      3112.96981489
  Ewald energy   TEWEN  =    -37448.55501798
  -Hartree energ DENC   =     -2913.17426450
  -exchange      EXHF   =      1980.60451407
  -V(xc)+E(xc)   XCENC  =      2427.47215614
  PAW double counting   =     14974.28775005   -15160.66396207
  entropy T*S    EENTRO =         0.00000000
  eigenvalues    EBANDS =      -436.31388272
  atomic energy  EATOM  =     31057.15824686
  ---------------------------------------------------
  free energy    TOTEN  =     -2406.21464527 eV

  energy without entropy =    -2406.21464527  energy(sigma->0) =    -2406.21464527
  exchange ACFDT corr.  =        -0.18465375  see jH, gK, PRB 81, 115126


--------------------------------------------------------------------------------------------------------




--------------------------------------- Iteration      1(   2)  ---------------------------------------


    POTLOK:  cpu time    0.1257: real time    0.1257
    SETDIJ:  cpu time    0.0436: real time    0.0436
    TRIAL :  cpu time   10.1977: real time    9.8435
    CORREC:  cpu time    9.9313: real time    9.6871
    CHARGE:  cpu time    0.0218: real time    0.0218
    --------------------------------------------
      LOOP:  cpu time   20.3218: real time   19.7238

 eigenvalue-minimisations  :     0
 total energy-change (2. order) :-0.2678749E+01  (-0.2417135E+00)
 number of electron     859.9999991 magnetization       1.9999999
 augmentation part       19.9525931 magnetization       0.1313291

 Free energy of the ion-electron system (eV)
  ---------------------------------------------------
  alpha Z        PSCENC =      3112.96981489
  Ewald energy   TEWEN  =    -37448.55501798
  -Hartree energ DENC   =     -2867.42580418
  -exchange      EXHF   =      1980.75615885
  -V(xc)+E(xc)   XCENC  =      2423.95925438
  PAW double counting   =     14856.06809111   -15039.28143917
  entropy T*S    EENTRO =         0.00000000
  eigenvalues    EBANDS =      -484.54269877
  atomic energy  EATOM  =     31057.15824686
  ---------------------------------------------------
  free energy    TOTEN  =     -2408.89339401 eV

  energy without entropy =    -2408.89339401  energy(sigma->0) =    -2408.89339401
  exchange ACFDT corr.  =        -0.15995253  see jH, gK, PRB 81, 115126


--------------------------------------------------------------------------------------------------------




--------------------------------------- Iteration      1(   3)  ---------------------------------------


    POTLOK:  cpu time    0.1236: real time    0.1236
    SETDIJ:  cpu time    0.0423: real time    0.0423
    TRIAL :  cpu time   10.1337: real time    9.7754
    CORREC:  cpu time    9.9146: real time    9.6660
    CHARGE:  cpu time    0.0217: real time    0.0217
    --------------------------------------------
      LOOP:  cpu time   20.2363: real time   19.6293

 eigenvalue-minimisations  :     0
 total energy-change (2. order) :-0.2422130E+00  (-0.1124699E+00)
 number of electron     859.9999991 magnetization       1.9999999
 augmentation part       19.9436944 magnetization       0.1294563

 Free energy of the ion-electron system (eV)
  ---------------------------------------------------
  alpha Z        PSCENC =      3112.96981489
  Ewald energy   TEWEN  =    -37448.55501798
  -Hartree energ DENC   =     -2869.77930704
  -exchange      EXHF   =      1982.10092728
  -V(xc)+E(xc)   XCENC  =      2424.45495588
  PAW double counting   =     14875.93062041   -15058.88210890
  entropy T*S    EENTRO =         0.00000000
  eigenvalues    EBANDS =      -484.53373840
  atomic energy  EATOM  =     31057.15824686
  ---------------------------------------------------
  free energy    TOTEN  =     -2409.13560699 eV

  energy without entropy =    -2409.13560699  energy(sigma->0) =    -2409.13560699
  exchange ACFDT corr.  =        -0.12385360  see jH, gK, PRB 81, 115126


--------------------------------------------------------------------------------------------------------




--------------------------------------- Iteration      1(   4)  ---------------------------------------


    POTLOK:  cpu time    0.1237: real time    0.1237
    SETDIJ:  cpu time    0.0436: real time    0.0436
    TRIAL :  cpu time   10.2275: real time    9.8585
    CORREC:  cpu time    9.9265: real time    9.6769
    CHARGE:  cpu time    0.0217: real time    0.0218
    --------------------------------------------
      LOOP:  cpu time   20.3434: real time   19.7249

 eigenvalue-minimisations  :     0
 total energy-change (2. order) :-0.1125816E+00  (-0.2544956E-01)
 number of electron     859.9999991 magnetization       1.9999999
 augmentation part       19.9432708 magnetization       0.1284893

 Free energy of the ion-electron system (eV)
  ---------------------------------------------------
  alpha Z        PSCENC =      3112.96981489
  Ewald energy   TEWEN  =    -37448.55501798
  -Hartree energ DENC   =     -2883.88776046
  -exchange      EXHF   =      1983.67314274
  -V(xc)+E(xc)   XCENC  =      2425.38546720
  PAW double counting   =     14909.63295323   -15092.57907463
  entropy T*S    EENTRO =         0.00000000
  eigenvalues    EBANDS =      -473.04596046
  atomic energy  EATOM  =     31057.15824686
  ---------------------------------------------------
  free energy    TOTEN  =     -2409.24818861 eV

  energy without entropy =    -2409.24818861  energy(sigma->0) =    -2409.24818861
  exchange ACFDT corr.  =        -0.16004775  see jH, gK, PRB 81, 115126


--------------------------------------------------------------------------------------------------------




--------------------------------------- Iteration      1(   5)  ---------------------------------------


    POTLOK:  cpu time    0.1203: real time    0.1203
    SETDIJ:  cpu time    0.0433: real time    0.0433
    TRIAL :  cpu time   10.2234: real time    9.8583
    CORREC:  cpu time    9.9179: real time    9.6701
    CHARGE:  cpu time    0.0219: real time    0.0219
    --------------------------------------------
      LOOP:  cpu time   20.3271: real time   19.7143

 eigenvalue-minimisations  :     0
 total energy-change (2. order) :-0.2550246E-01  (-0.1067698E-01)
 number of electron     859.9999991 magnetization       1.9999999
 augmentation part       19.9443418 magnetization       0.1279473

 Free energy of the ion-electron system (eV)
  ---------------------------------------------------
  alpha Z        PSCENC =      3112.96981489
  Ewald energy   TEWEN  =    -37448.55501798
  -Hartree energ DENC   =     -2885.53585150
  -exchange      EXHF   =      1983.86141292
  -V(xc)+E(xc)   XCENC  =      2425.51483367
  PAW double counting   =     14912.84793074   -15095.80919588
  entropy T*S    EENTRO =         0.00000000
  eigenvalues    EBANDS =      -471.72586479
  atomic energy  EATOM  =     31057.15824686
  ---------------------------------------------------
  free energy    TOTEN  =     -2409.27369106 eV

  energy without entropy =    -2409.27369106  energy(sigma->0) =    -2409.27369106
  exchange ACFDT corr.  =        -0.16162334  see jH, gK, PRB 81, 115126


--------------------------------------------------------------------------------------------------------




--------------------------------------- Iteration      1(   6)  ---------------------------------------


    POTLOK:  cpu time    0.1236: real time    0.1236
    SETDIJ:  cpu time    0.0434: real time    0.0434
    TRIAL :  cpu time   10.1534: real time    9.7951
    CORREC:  cpu time    9.8784: real time    9.6288
    CHARGE:  cpu time    0.0218: real time    0.0218
    --------------------------------------------
      LOOP:  cpu time   20.2210: real time   19.6131

 eigenvalue-minimisations  :     0
 total energy-change (2. order) :-0.1070673E-01  (-0.4166964E-02)
 number of electron     859.9999991 magnetization       1.9999999
 augmentation part       19.9471415 magnetization       0.1276985

 Free energy of the ion-electron system (eV)
  ---------------------------------------------------
  alpha Z        PSCENC =      3112.96981489
  Ewald energy   TEWEN  =    -37448.55501798
  -Hartree energ DENC   =     -2884.11688621
  -exchange      EXHF   =      1983.70255163
  -V(xc)+E(xc)   XCENC  =      2425.41635157
  PAW double counting   =     14907.49689614   -15090.46518678
  entropy T*S    EENTRO =         0.00000000
  eigenvalues    EBANDS =      -472.89116792
  atomic energy  EATOM  =     31057.15824686
  ---------------------------------------------------
  free energy    TOTEN  =     -2409.28439780 eV

  energy without entropy =    -2409.28439780  energy(sigma->0) =    -2409.28439780
  exchange ACFDT corr.  =        -0.16243200  see jH, gK, PRB 81, 115126


--------------------------------------------------------------------------------------------------------




--------------------------------------- Iteration      1(   7)  ---------------------------------------


    POTLOK:  cpu time    0.1235: real time    0.1236
    SETDIJ:  cpu time    0.0425: real time    0.0425
    TRIAL :  cpu time   10.1409: real time    9.7727
    CORREC:  cpu time   10.0044: real time    9.7524
    CHARGE:  cpu time    0.0271: real time    0.0271
    --------------------------------------------
      LOOP:  cpu time   20.3388: real time   19.7185

 eigenvalue-minimisations  :     0
 total energy-change (2. order) :-0.4172817E-02  (-0.1667740E-02)
 number of electron     859.9999991 magnetization       1.9999999
 augmentation part       19.9505942 magnetization       0.1276057

 Free energy of the ion-electron system (eV)
  ---------------------------------------------------
  alpha Z        PSCENC =      3112.96981489
  Ewald energy   TEWEN  =    -37448.55501798
  -Hartree energ DENC   =     -2883.41270327
  -exchange      EXHF   =      1983.61566146
  -V(xc)+E(xc)   XCENC  =      2425.36518925
  PAW double counting   =     14904.70471212   -15087.69177824
  entropy T*S    EENTRO =         0.00000000
  eigenvalues    EBANDS =      -473.44269569
  atomic energy  EATOM  =     31057.15824686
  ---------------------------------------------------
  free energy    TOTEN  =     -2409.28857061 eV

  energy without entropy =    -2409.28857061  energy(sigma->0) =    -2409.28857061
  exchange ACFDT corr.  =        -0.16293416  see jH, gK, PRB 81, 115126


--------------------------------------------------------------------------------------------------------




--------------------------------------- Iteration      1(   8)  ---------------------------------------


    POTLOK:  cpu time    0.1186: real time    0.1186
    SETDIJ:  cpu time    0.0506: real time    0.0506
    TRIAL :  cpu time   10.1074: real time    9.7499
    CORREC:  cpu time    9.8835: real time    9.6365
    CHARGE:  cpu time    0.0220: real time    0.0220
    --------------------------------------------
      LOOP:  cpu time   20.1825: real time   19.5780

 eigenvalue-minimisations  :     0
 total energy-change (2. order) :-0.1670077E-02  (-0.6613254E-03)
 number of electron     859.9999991 magnetization       1.9999999
 augmentation part       19.9530917 magnetization       0.1276051

 Free energy of the ion-electron system (eV)
  ---------------------------------------------------
  alpha Z        PSCENC =      3112.96981489
  Ewald energy   TEWEN  =    -37448.55501798
  -Hartree energ DENC   =     -2883.62424603
  -exchange      EXHF   =      1983.62588113
  -V(xc)+E(xc)   XCENC  =      2425.37762567
  PAW double counting   =     14905.07990332   -15088.08756783
  entropy T*S    EENTRO =         0.00000000
  eigenvalues    EBANDS =      -473.23488072
  atomic energy  EATOM  =     31057.15824686
  ---------------------------------------------------
  free energy    TOTEN  =     -2409.29024069 eV

  energy without entropy =    -2409.29024069  energy(sigma->0) =    -2409.29024069
  exchange ACFDT corr.  =        -0.16339654  see jH, gK, PRB 81, 115126


--------------------------------------------------------------------------------------------------------




--------------------------------------- Iteration      1(   9)  ---------------------------------------


    POTLOK:  cpu time    0.1253: real time    0.1253
    SETDIJ:  cpu time    0.0434: real time    0.0434
    TRIAL :  cpu time   10.1496: real time    9.7941
    CORREC:  cpu time    9.8838: real time    9.6340
    CHARGE:  cpu time    0.0220: real time    0.0220
    --------------------------------------------
      LOOP:  cpu time   20.2245: real time   19.6192

 eigenvalue-minimisations  :     0
 total energy-change (2. order) :-0.6623206E-03  (-0.2229258E-03)
 number of electron     859.9999991 magnetization       1.9999999
 augmentation part       19.9538951 magnetization       0.1276945

 Free energy of the ion-electron system (eV)
  ---------------------------------------------------
  alpha Z        PSCENC =      3112.96981489
  Ewald energy   TEWEN  =    -37448.55501798
  -Hartree energ DENC   =     -2883.98314345
  -exchange      EXHF   =      1983.65684289
  -V(xc)+E(xc)   XCENC  =      2425.39915879
  PAW double counting   =     14906.23566977   -15089.25445408
  entropy T*S    EENTRO =         0.00000000
  eigenvalues    EBANDS =      -472.91802071
  atomic energy  EATOM  =     31057.15824686
  ---------------------------------------------------
  free energy    TOTEN  =     -2409.29090301 eV

  energy without entropy =    -2409.29090301  energy(sigma->0) =    -2409.29090301
  exchange ACFDT corr.  =        -0.16361231  see jH, gK, PRB 81, 115126


--------------------------------------------------------------------------------------------------------




--------------------------------------- Iteration      1(  10)  ---------------------------------------


    POTLOK:  cpu time    0.1247: real time    0.1247
    SETDIJ:  cpu time    0.0434: real time    0.0434
    TRIAL :  cpu time   10.1187: real time    9.7610
    CORREC:  cpu time    9.8719: real time    9.6219
    CHARGE:  cpu time    0.0219: real time    0.0219
    --------------------------------------------
      LOOP:  cpu time   20.1809: real time   19.5732

 eigenvalue-minimisations  :     0
 total energy-change (2. order) :-0.2235077E-03  (-0.7369150E-04)
 number of electron     859.9999991 magnetization       1.9999999
 augmentation part       19.9539080 magnetization       0.1277238

 Free energy of the ion-electron system (eV)
  ---------------------------------------------------
  alpha Z        PSCENC =      3112.96981489
  Ewald energy   TEWEN  =    -37448.55501798
  -Hartree energ DENC   =     -2883.94196968
  -exchange      EXHF   =      1983.66527859
  -V(xc)+E(xc)   XCENC  =      2425.40163611
  PAW double counting   =     14906.72971988   -15089.74797263
  entropy T*S    EENTRO =         0.00000000
  eigenvalues    EBANDS =      -472.97086257
  atomic energy  EATOM  =     31057.15824686
  ---------------------------------------------------
  free energy    TOTEN  =     -2409.29112652 eV

  energy without entropy =    -2409.29112652  energy(sigma->0) =    -2409.29112652
  exchange ACFDT corr.  =        -0.16355355  see jH, gK, PRB 81, 115126


--------------------------------------------------------------------------------------------------------




--------------------------------------- Iteration      1(  11)  ---------------------------------------


    POTLOK:  cpu time    0.1244: real time    0.1244
    SETDIJ:  cpu time    0.0420: real time    0.0420
    TRIAL :  cpu time   10.1312: real time    9.7714
    CORREC:  cpu time    9.8993: real time    9.6560
    CHARGE:  cpu time    0.0216: real time    0.0216
    --------------------------------------------
      LOOP:  cpu time   20.2189: real time   19.6158

 eigenvalue-minimisations  :     0
 total energy-change (2. order) :-0.7374359E-04  (-0.4195698E-04)
 number of electron     859.9999991 magnetization       1.9999999
 augmentation part       19.9534699 magnetization       0.1277806

 Free energy of the ion-electron system (eV)
  ---------------------------------------------------
  alpha Z        PSCENC =      3112.96981489
  Ewald energy   TEWEN  =    -37448.55501798
  -Hartree energ DENC   =     -2883.95332493
  -exchange      EXHF   =      1983.66664566
  -V(xc)+E(xc)   XCENC  =      2425.39996060
  PAW double counting   =     14906.85180707   -15089.86678587
  entropy T*S    EENTRO =         0.00000000
  eigenvalues    EBANDS =      -472.96254657
  atomic energy  EATOM  =     31057.15824686
  ---------------------------------------------------
  free energy    TOTEN  =     -2409.29120026 eV

  energy without entropy =    -2409.29120026  energy(sigma->0) =    -2409.29120026
  exchange ACFDT corr.  =        -0.16362679  see jH, gK, PRB 81, 115126


--------------------------------------------------------------------------------------------------------




--------------------------------------- Iteration      1(  12)  ---------------------------------------


    POTLOK:  cpu time    0.1210: real time    0.1210
    SETDIJ:  cpu time    0.0432: real time    0.0432
    TRIAL :  cpu time   10.6539: real time   10.3018
    CORREC:  cpu time   10.0152: real time    9.7469
    CHARGE:  cpu time    0.0271: real time    0.0271
    --------------------------------------------
      LOOP:  cpu time   20.8608: real time   20.2403

 eigenvalue-minimisations  :     0
 total energy-change (2. order) :-0.4111262E-04  (-0.1967656E-04)
 number of electron     859.9999991 magnetization       1.9999999
 augmentation part       19.9531653 magnetization       0.1278202

 Free energy of the ion-electron system (eV)
  ---------------------------------------------------
  alpha Z        PSCENC =      3112.96981489
  Ewald energy   TEWEN  =    -37448.55501798
  -Hartree energ DENC   =     -2883.92463787
  -exchange      EXHF   =      1983.66795724
  -V(xc)+E(xc)   XCENC  =      2425.39861992
  PAW double counting   =     14906.87595097   -15089.88711655
  entropy T*S    EENTRO =         0.00000000
  eigenvalues    EBANDS =      -472.99505887
  atomic energy  EATOM  =     31057.15824686
  ---------------------------------------------------
  free energy    TOTEN  =     -2409.29124138 eV

  energy without entropy =    -2409.29124138  energy(sigma->0) =    -2409.29124138
  exchange ACFDT corr.  =        -0.16357472  see jH, gK, PRB 81, 115126


--------------------------------------------------------------------------------------------------------




--------------------------------------- Iteration      1(  13)  ---------------------------------------


    POTLOK:  cpu time    0.1221: real time    0.1221
    SETDIJ:  cpu time    0.0438: real time    0.0438
    TRIAL :  cpu time   10.1508: real time    9.7947
    CORREC:  cpu time    9.9126: real time    9.6643
    CHARGE:  cpu time    0.0217: real time    0.0217
    --------------------------------------------
      LOOP:  cpu time   20.2513: real time   19.6469

 eigenvalue-minimisations  :     0
 total energy-change (2. order) :-0.1859627E-04  (-0.7198189E-05)
 number of electron     859.9999991 magnetization       1.9999999
 augmentation part       19.9530966 magnetization       0.1278270

 Free energy of the ion-electron system (eV)
  ---------------------------------------------------
  alpha Z        PSCENC =      3112.96981489
  Ewald energy   TEWEN  =    -37448.55501798
  -Hartree energ DENC   =     -2883.92834515
  -exchange      EXHF   =      1983.66988669
  -V(xc)+E(xc)   XCENC  =      2425.39969806
  PAW double counting   =     14906.86578285   -15089.87559910
  entropy T*S    EENTRO =         0.00000000
  eigenvalues    EBANDS =      -472.99572710
  atomic energy  EATOM  =     31057.15824686
  ---------------------------------------------------
  free energy    TOTEN  =     -2409.29125997 eV

  energy without entropy =    -2409.29125997  energy(sigma->0) =    -2409.29125997
  exchange ACFDT corr.  =        -0.16358007  see jH, gK, PRB 81, 115126


--------------------------------------------------------------------------------------------------------




--------------------------------------- Iteration      1(  14)  ---------------------------------------


    POTLOK:  cpu time    0.1268: real time    0.1268
    SETDIJ:  cpu time    0.0433: real time    0.0433
    TRIAL :  cpu time   10.0803: real time    9.7245
    CORREC:  cpu time    9.8911: real time    9.6447
    CHARGE:  cpu time    0.0218: real time    0.0218
    --------------------------------------------
      LOOP:  cpu time   20.1637: real time   19.5615

 eigenvalue-minimisations  :     0
 total energy-change (2. order) :-0.7143095E-05  (-0.3928436E-05)
 number of electron     859.9999991 magnetization       1.9999999
 augmentation part       19.9530811 magnetization       0.1278359

 Free energy of the ion-electron system (eV)
  ---------------------------------------------------
  alpha Z        PSCENC =      3112.96981489
  Ewald energy   TEWEN  =    -37448.55501798
  -Hartree energ DENC   =     -2883.94513812
  -exchange      EXHF   =      1983.66951586
  -V(xc)+E(xc)   XCENC  =      2425.39993163
  PAW double counting   =     14906.81709683   -15089.82703143
  entropy T*S    EENTRO =         0.00000000
  eigenvalues    EBANDS =      -472.97868566
  atomic energy  EATOM  =     31057.15824686
  ---------------------------------------------------
  free energy    TOTEN  =     -2409.29126711 eV

  energy without entropy =    -2409.29126711  energy(sigma->0) =    -2409.29126711
  exchange ACFDT corr.  =        -0.16359574  see jH, gK, PRB 81, 115126


--------------------------------------------------------------------------------------------------------


  average scaling for gradient   1.2943


 average (electrostatic) potential at core
  the test charge radii are     0.9892  0.6991
  (the norm of the test charge is              1.0000)
       1 -74.8139       2 -41.5426       3 -41.5866       4 -41.5669       5 -41.5939
       6 -41.6005       7 -41.6085       8 -41.4164       9 -41.5799      10 -41.5398
      11 -41.5610      12 -41.5974      13 -41.5948      14 -41.5906      15 -41.6142
      16 -41.5960      17 -41.5537      18 -41.5670      19 -41.5730      20 -41.5269
      21 -41.5729      22 -41.5387      23 -41.5851      24 -41.5919      25 -41.6017
      26 -40.6309      27 -41.5878      28 -41.5350      29 -41.5646      30 -41.5465
      31 -41.5785      32 -41.5987      33 -41.5869      34 -41.5528      35 -41.5942
      36 -41.6059      37 -41.5110      38 -41.5900      39 -41.5654      40 -41.5892
      41 -41.5703      42 -41.5849      43 -41.5799      44 -41.5832      45 -41.6123
      46 -41.5206      47 -41.5363      48 -41.5799      49 -41.5435      50 -41.5952
      51 -41.6032      52 -41.5850      53 -41.6050      54 -41.6035      55 -41.5394
      56 -41.5850      57 -41.4066      58 -41.5895      59 -41.6002      60 -41.5843
      61 -41.5657      62 -41.6035      63 -41.5584      64 -41.5592      65 -41.5844
      66 -41.5546      67 -41.5983      68 -41.6146      69 -41.5694      70 -41.5926
      71 -41.5960      72 -41.5754      73 -41.4960      74 -41.5797      75 -40.5858
      76 -41.5802      77 -41.5879      78 -41.5985      79 -41.5531      80 -41.5978
      81 -41.5335      82 -40.8921      83 -41.5757      84 -41.5084      85 -41.5819
      86 -41.6100      87 -41.5986      88 -41.5298      89 -41.5916      90 -41.5742
      91 -41.5311      92 -41.5878      93 -41.4742      94 -41.5940      95 -41.5943
      96 -41.6161      97 -41.4786      98 -41.6133      99 -41.5798     100 -41.5520
     101 -41.5828     102 -41.5545     103 -41.5892     104 -41.6127     105 -41.5986
     106 -41.5515     107 -41.5975     108 -41.5735     109 -41.5742     110 -41.5916
     111 -41.5298     112 -41.5986     113 -41.6100     114 -41.5820     115 -41.5085
     116 -41.5757     117 -40.8921     118 -41.5735     119 -41.5975     120 -41.5514
     121 -41.5986     122 -41.6128     123 -41.5893     124 -41.5545     125 -41.5828
     126 -41.5520     127 -41.5798     128 -41.6133     129 -41.4786     130 -41.6160
     131 -41.5943     132 -41.5940     133 -41.4743     134 -41.5878     135 -41.5311
     136 -40.5859     137 -41.5797     138 -41.4959     139 -41.5335     140 -41.5978
     141 -41.5531     142 -41.5985     143 -41.5878     144 -41.5803     145 -41.5546
     146 -41.5844     147 -41.5591     148 -41.5754     149 -41.5960     150 -41.5926
     151 -41.5694     152 -41.6146     153 -41.5983     154 -41.4067     155 -41.5850
[...]
    4ORBIT:  cpu time    0.0000: real time    0.0000
 


 total charge     
 
# of ion       s       p       d       tot
------------------------------------------
    1        0.694   0.970   0.000   1.664
    2        0.838   1.742   0.000   2.580
    3        0.839   1.756   0.000   2.595
    4        0.840   1.762   0.000   2.603
    5        0.840   1.762   0.000   2.602
    6        0.840   1.762   0.000   2.603
    7        0.841   1.763   0.000   2.604
    8        0.844   1.771   0.000   2.615
    9        0.841   1.764   0.000   2.605
   10        0.844   1.769   0.000   2.613
   11        0.841   1.764   0.000   2.604
   12        0.840   1.763   0.000   2.603
   13        0.841   1.763   0.000   2.605
   14        0.841   1.764   0.000   2.606
   15        0.841   1.763   0.000   2.603
   16        0.841   1.765   0.000   2.606
   17        0.840   1.763   0.000   2.603
   18        0.842   1.769   0.000   2.611
   19        0.840   1.763   0.000   2.604
   20        0.845   1.764   0.000   2.609
   21        0.841   1.764   0.000   2.605
   22        0.844   1.768   0.000   2.612
   23        0.840   1.761   0.000   2.601
   24        0.841   1.767   0.000   2.608
   25        0.840   1.761   0.000   2.601
   26        0.849   1.762   0.000   2.611
   27        0.840   1.761   0.000   2.601
   28        0.839   1.754   0.000   2.594
   29        0.840   1.754   0.000   2.594
   30        0.841   1.764   0.000   2.605
   31        0.840   1.754   0.000   2.593
   32        0.840   1.750   0.000   2.590
   33        0.842   1.766   0.000   2.608
   34        0.841   1.764   0.000   2.604
   35        0.842   1.766   0.000   2.607
   36        0.840   1.759   0.000   2.599
   37        0.840   1.755   0.000   2.595
   38        0.841   1.750   0.000   2.590
   39        0.842   1.768   0.000   2.610
   40        0.841   1.749   0.000   2.590
   41        0.840   1.763   0.000   2.604
   42        0.841   1.766   0.000   2.607
   43        0.842   1.767   0.000   2.608
   44        0.841   1.766   0.000   2.607
   45        0.841   1.763   0.000   2.604
   46        0.841   1.765   0.000   2.606
   47        0.842   1.770   0.000   2.612
   48        0.840   1.762   0.000   2.602
   49        0.842   1.770   0.000   2.612
   50        0.841   1.765   0.000   2.606
   51        0.841   1.764   0.000   2.604
   52        0.840   1.761   0.000   2.602
   53        0.841   1.763   0.000   2.604
   54        0.840   1.761   0.000   2.602
   55        0.838   1.743   0.000   2.581
   56        0.840   1.762   0.000   2.603
   57        0.845   1.772   0.000   2.617
   58        0.839   1.755   0.000   2.595
   59        0.840   1.763   0.000   2.603
   60        0.841   1.764   0.000   2.604
   61        0.840   1.762   0.000   2.603
   62        0.841   1.764   0.000   2.605
   63        0.844   1.768   0.000   2.611
   64        0.841   1.764   0.000   2.604
   65        0.841   1.765   0.000   2.607
   66        0.840   1.763   0.000   2.603
   67        0.840   1.763   0.000   2.603
   68        0.841   1.762   0.000   2.603
   69        0.842   1.769   0.000   2.610
   70        0.841   1.764   0.000   2.605
   71        0.841   1.765   0.000   2.606
   72        0.840   1.763   0.000   2.603
   73        0.845   1.767   0.000   2.612
   74        0.840   1.761   0.000   2.602
   75        0.849   1.765   0.000   2.614
   76        0.841   1.764   0.000   2.605
   77        0.841   1.767   0.000   2.609
   78        0.840   1.760   0.000   2.600
   79        0.844   1.767   0.000   2.610
   80        0.840   1.761   0.000   2.602
   81        0.839   1.754   0.000   2.593
   82        0.849   1.746   0.000   2.596
   83        0.840   1.762   0.000   2.603
   84        0.844   1.763   0.000   2.607
   85        0.840   1.762   0.000   2.602
   86        0.841   1.762   0.000   2.603
   87        0.840   1.762   0.000   2.602
   88        0.844   1.762   0.000   2.605
   89        0.840   1.763   0.000   2.603
   90        0.837   1.739   0.000   2.576
   91        0.840   1.754   0.000   2.594
   92        0.840   1.762   0.000   2.602
   93        0.844   1.774   0.000   2.618
   94        0.840   1.761   0.000   2.602
   95        0.841   1.765   0.000   2.606
   96        0.841   1.762   0.000   2.603
   97        0.844   1.773   0.000   2.617
   98        0.841   1.762   0.000   2.603
   99        0.841   1.762   0.000   2.603
  100        0.841   1.763   0.000   2.604
  101        0.842   1.768   0.000   2.610
  102        0.841   1.765   0.000   2.606
  103        0.842   1.767   0.000   2.609
  104        0.841   1.763   0.000   2.603
  105        0.840   1.762   0.000   2.603
  106        0.841   1.765   0.000   2.606
  107        0.840   1.762   0.000   2.603
  108        0.839   1.757   0.000   2.597
  109        0.837   1.739   0.000   2.576
  110        0.840   1.763   0.000   2.603
  111        0.844   1.762   0.000   2.605
  112        0.840   1.762   0.000   2.602
  113        0.841   1.762   0.000   2.603
  114        0.840   1.762   0.000   2.602
  115        0.844   1.763   0.000   2.607
  116        0.840   1.762   0.000   2.603
  117        0.849   1.746   0.000   2.596
  118        0.839   1.757   0.000   2.597
  119        0.840   1.762   0.000   2.603
  120        0.841   1.765   0.000   2.606
  121        0.840   1.762   0.000   2.603
  122        0.841   1.763   0.000   2.603
  123        0.842   1.767   0.000   2.609
  124        0.841   1.765   0.000   2.606
  125        0.842   1.768   0.000   2.610
  126        0.841   1.763   0.000   2.604
  127        0.841   1.762   0.000   2.603
  128        0.841   1.762   0.000   2.603
  129        0.844   1.773   0.000   2.617
  130        0.841   1.762   0.000   2.603
  131        0.841   1.765   0.000   2.606
  132        0.840   1.761   0.000   2.602
  133        0.844   1.774   0.000   2.618
  134        0.840   1.762   0.000   2.602
  135        0.840   1.754   0.000   2.594
  136        0.849   1.765   0.000   2.614
  137        0.840   1.761   0.000   2.602
  138        0.845   1.767   0.000   2.612
  139        0.839   1.754   0.000   2.593
  140        0.840   1.761   0.000   2.602
  141        0.844   1.767   0.000   2.610
  142        0.840   1.760   0.000   2.600
  143        0.841   1.767   0.000   2.609
  144        0.841   1.764   0.000   2.605
  145        0.840   1.763   0.000   2.603
  146        0.841   1.765   0.000   2.607
  147        0.841   1.764   0.000   2.604
  148        0.840   1.763   0.000   2.603
  149        0.841   1.765   0.000   2.606
  150        0.841   1.764   0.000   2.605
  151        0.842   1.769   0.000   2.610
  152        0.841   1.762   0.000   2.603
  153        0.840   1.763   0.000   2.603
  154        0.845   1.772   0.000   2.617
  155        0.840   1.762   0.000   2.603
  156        0.838   1.743   0.000   2.581
  157        0.844   1.768   0.000   2.611
  158        0.841   1.764   0.000   2.605
  159        0.840   1.762   0.000   2.602
  160        0.841   1.764   0.000   2.604
  161        0.840   1.763   0.000   2.603
  162        0.839   1.755   0.000   2.595
  163        0.841   1.764   0.000   2.605
  164        0.840   1.754   0.000   2.594
  165        0.841   1.764   0.000   2.604
  166        0.840   1.759   0.000   2.599
  167        0.842   1.766   0.000   2.607
  168        0.840   1.754   0.000   2.593
  169        0.842   1.766   0.000   2.608
  170        0.840   1.750   0.000   2.590
  171        0.841   1.765   0.000   2.606
  172        0.840   1.762   0.000   2.602
  173        0.842   1.770   0.000   2.612
  174        0.840   1.761   0.000   2.602
  175        0.840   1.761   0.000   2.602
  176        0.841   1.763   0.000   2.604
  177        0.842   1.770   0.000   2.612
  178        0.841   1.764   0.000   2.604
  179        0.841   1.765   0.000   2.606
  180        0.840   1.755   0.000   2.595
  181        0.842   1.768   0.000   2.610
  182        0.841   1.750   0.000   2.590
  183        0.842   1.767   0.000   2.608
  184        0.841   1.763   0.000   2.604
  185        0.841   1.766   0.000   2.607
  186        0.841   1.749   0.000   2.590
  187        0.841   1.766   0.000   2.607
  188        0.840   1.763   0.000   2.604
  189        0.849   1.762   0.000   2.611
  190        0.839   1.754   0.000   2.594
  191        0.840   1.761   0.000   2.601
  192        0.840   1.761   0.000   2.601
  193        0.840   1.761   0.000   2.601
  194        0.841   1.767   0.000   2.608
  195        0.845   1.764   0.000   2.609
  196        0.844   1.768   0.000   2.612
  197        0.841   1.764   0.000   2.605
  198        0.840   1.763   0.000   2.603
  199        0.840   1.763   0.000   2.604
  200        0.842   1.769   0.000   2.611
  201        0.841   1.764   0.000   2.606
  202        0.841   1.765   0.000   2.606
  203        0.841   1.763   0.000   2.603
  204        0.841   1.764   0.000   2.604
  205        0.841   1.763   0.000   2.605
  206        0.840   1.763   0.000   2.603
  207        0.844   1.771   0.000   2.615
  208        0.844   1.769   0.000   2.613
  209        0.841   1.764   0.000   2.605
  210        0.840   1.762   0.000   2.602
  211        0.841   1.763   0.000   2.604
  212        0.840   1.762   0.000   2.603
  213        0.838   1.741   0.000   2.580
  214        0.840   1.762   0.000   2.603
  215        0.839   1.756   0.000   2.595
--------------------------------------------------
tot        180.709 378.095   0.000 558.804
 


 magnetization (x)
 
# of ion       s       p       d       tot
------------------------------------------
    1       -0.008   0.076   0.000   0.069
    2       -0.001   0.002   0.000   0.001
    3       -0.000   0.000   0.000   0.000
    4       -0.000  -0.000   0.000  -0.000
    5       -0.000   0.001   0.000   0.001
    6       -0.000   0.000   0.000   0.000
    7        0.000   0.002   0.000   0.002
    8       -0.000   0.008   0.000   0.007
    9       -0.000   0.001   0.000   0.001
   10        0.001   0.013   0.000   0.015
   11       -0.000   0.000   0.000   0.000
   12        0.000   0.001   0.000   0.001
   13        0.000   0.003   0.000   0.003
   14        0.000   0.003   0.000   0.003
   15        0.000   0.002   0.000   0.002
   16        0.000   0.001   0.000   0.001
   17        0.000   0.001   0.000   0.001
   18        0.000   0.002   0.000   0.002
   19       -0.000   0.000   0.000   0.000
   20        0.001   0.014   0.000   0.014
   21       -0.000   0.000   0.000  -0.000
   22        0.001   0.013   0.000   0.014
   23        0.000   0.002   0.000   0.002
   24        0.000   0.002   0.000   0.002
   25        0.000   0.002   0.000   0.002
   26        0.007   0.092   0.000   0.100
   27        0.000   0.003   0.000   0.003
   28        0.000   0.004   0.000   0.005
   29       -0.000   0.003   0.000   0.003
   30       -0.000   0.000   0.000   0.000
   31       -0.000   0.003   0.000   0.003
   32        0.001   0.011   0.000   0.012
   33        0.000   0.005   0.000   0.005
   34       -0.000   0.000   0.000   0.000
   35        0.000   0.005   0.000   0.006
   36        0.000   0.001   0.000   0.001
   37       -0.000   0.001   0.000   0.001
   38        0.001   0.013   0.000   0.014
   39        0.000   0.004   0.000   0.004
   40        0.001   0.012   0.000   0.013
   41        0.000   0.001   0.000   0.001
   42        0.000   0.001   0.000   0.001
   43        0.000   0.005   0.000   0.005
   44        0.000   0.001   0.000   0.001
   45        0.000   0.001   0.000   0.002
   46       -0.000   0.000   0.000   0.000
   47        0.000   0.002   0.000   0.002
   48        0.000   0.000   0.000   0.000
   49        0.000   0.003   0.000   0.003
   50        0.000   0.002   0.000   0.002
   51       -0.000   0.001   0.000   0.001
   52        0.000   0.000   0.000   0.000
   53       -0.000   0.001   0.000   0.001
   54        0.000   0.001   0.000   0.001
   55       -0.001   0.002   0.000   0.001
   56       -0.000   0.000   0.000   0.000
   57       -0.000   0.006   0.000   0.006
   58       -0.000   0.000   0.000   0.000
   59       -0.000   0.000   0.000   0.000
   60       -0.000   0.001   0.000   0.001
   61       -0.000  -0.000   0.000  -0.000
   62        0.000   0.002   0.000   0.002
   63        0.002   0.015   0.000   0.016
   64       -0.000   0.000   0.000   0.000
   65        0.000   0.002   0.000   0.003
   66        0.000   0.001   0.000   0.001
   67        0.000   0.001   0.000   0.001
   68        0.000   0.002   0.000   0.002
   69        0.000   0.002   0.000   0.002
   70        0.000   0.003   0.000   0.003
   71        0.000   0.001   0.000   0.001
   72        0.000   0.000   0.000   0.000
   73        0.000   0.011   0.000   0.011
   74        0.000   0.002   0.000   0.002
   75        0.006   0.085   0.000   0.091
   76       -0.000   0.000   0.000   0.000
   77        0.000   0.002   0.000   0.002
   78        0.000   0.003   0.000   0.003
   79        0.001   0.014   0.000   0.016
   80        0.000   0.001   0.000   0.001
   81        0.000   0.004   0.000   0.004
   82        0.015   0.132   0.000   0.147
   83        0.000   0.001   0.000   0.001
   84        0.002   0.016   0.000   0.018
   85        0.000   0.001   0.000   0.001
   86        0.000   0.003   0.000   0.003
   87       -0.000   0.001   0.000   0.001
   88        0.002   0.018   0.000   0.019
   89       -0.000   0.000   0.000   0.000
   90       -0.001  -0.001   0.000  -0.002
   91        0.000   0.006   0.000   0.006
   92        0.000   0.001   0.000   0.001
   93        0.001   0.008   0.000   0.009
   94        0.000   0.001   0.000   0.001
   95       -0.000   0.000   0.000   0.000
   96        0.000   0.004   0.000   0.004
   97        0.001   0.008   0.000   0.009
   98        0.000   0.004   0.000   0.004
   99       -0.000   0.001   0.000   0.000
  100       -0.000   0.001   0.000   0.001
  101        0.000   0.003   0.000   0.003
  102       -0.000   0.000   0.000   0.000
  103        0.000   0.003   0.000   0.003
  104        0.000   0.001   0.000   0.001
  105        0.000   0.001   0.000   0.001
  106       -0.000   0.000   0.000  -0.000
  107        0.000   0.001   0.000   0.001
  108       -0.000  -0.000   0.000  -0.000
  109       -0.001  -0.001   0.000  -0.002
  110       -0.000   0.000   0.000   0.000
  111        0.002   0.018   0.000   0.019
  112       -0.000   0.001   0.000   0.001
  113        0.000   0.003   0.000   0.003
  114        0.000   0.001   0.000   0.001
  115        0.002   0.016   0.000   0.018
  116        0.000   0.001   0.000   0.001
  117        0.015   0.132   0.000   0.147
  118       -0.000  -0.000   0.000  -0.000
  119        0.000   0.001   0.000   0.001
  120       -0.000   0.000   0.000  -0.000
  121        0.000   0.001   0.000   0.001
  122        0.000   0.001   0.000   0.001
  123        0.000   0.003   0.000   0.003
  124       -0.000   0.000   0.000   0.000
  125        0.000   0.003   0.000   0.003
  126       -0.000   0.001   0.000   0.001
  127       -0.000   0.001   0.000   0.000
  128        0.000   0.004   0.000   0.004
  129        0.001   0.008   0.000   0.009
  130        0.000   0.004   0.000   0.004
  131       -0.000   0.000   0.000   0.000
  132        0.000   0.001   0.000   0.001
  133        0.001   0.008   0.000   0.009
  134        0.000   0.001   0.000   0.001
  135        0.000   0.006   0.000   0.006
  136        0.006   0.085   0.000   0.091
  137        0.000   0.002   0.000   0.002
  138        0.000   0.011   0.000   0.011
  139        0.000   0.004   0.000   0.004
  140        0.000   0.001   0.000   0.001
  141        0.001   0.014   0.000   0.016
  142        0.000   0.003   0.000   0.003
  143        0.000   0.002   0.000   0.002
  144       -0.000   0.000   0.000   0.000
  145        0.000   0.001   0.000   0.001
  146        0.000   0.002   0.000   0.003
  147       -0.000   0.000   0.000   0.000
  148        0.000   0.000   0.000   0.000
  149        0.000   0.001   0.000   0.001
  150        0.000   0.003   0.000   0.003
  151        0.000   0.002   0.000   0.002
  152        0.000   0.002   0.000   0.002
  153        0.000   0.001   0.000   0.001
  154       -0.000   0.006   0.000   0.006
  155       -0.000   0.000   0.000   0.000
  156       -0.001   0.002   0.000   0.001
  157        0.002   0.015   0.000   0.016
  158        0.000   0.002   0.000   0.002
  159       -0.000  -0.000   0.000  -0.000
  160       -0.000   0.001   0.000   0.001
  161       -0.000   0.000   0.000   0.000
  162       -0.000   0.000   0.000   0.000
  163       -0.000   0.000   0.000   0.000
  164       -0.000   0.003   0.000   0.003
  165       -0.000   0.000   0.000   0.000
  166        0.000   0.001   0.000   0.001
  167        0.000   0.005   0.000   0.006
  168       -0.000   0.003   0.000   0.003
  169        0.000   0.005   0.000   0.005
  170        0.001   0.011   0.000   0.012
  171       -0.000   0.000   0.000   0.000
  172        0.000   0.000   0.000   0.000
  173        0.000   0.002   0.000   0.002
  174        0.000   0.000   0.000   0.000
  175        0.000   0.001   0.000   0.001
  176       -0.000   0.001   0.000   0.001
  177        0.000   0.003   0.000   0.003
  178       -0.000   0.001   0.000   0.001
  179        0.000   0.002   0.000   0.002
  180       -0.000   0.001   0.000   0.001
  181        0.000   0.004   0.000   0.004
  182        0.001   0.013   0.000   0.014
  183        0.000   0.005   0.000   0.005
  184        0.000   0.001   0.000   0.002
  185        0.000   0.001   0.000   0.001
  186        0.001   0.012   0.000   0.013
  187        0.000   0.001   0.000   0.001
  188        0.000   0.001   0.000   0.001
  189        0.007   0.092   0.000   0.100
  190        0.000   0.004   0.000   0.005
  191        0.000   0.003   0.000   0.003
  192        0.000   0.002   0.000   0.002
  193        0.000   0.002   0.000   0.002
  194        0.000   0.002   0.000   0.002
  195        0.001   0.014   0.000   0.014
  196        0.001   0.013   0.000   0.014
  197       -0.000   0.000   0.000  -0.000
  198        0.000   0.001   0.000   0.001
  199       -0.000   0.000   0.000   0.000
  200        0.000   0.002   0.000   0.002
  201        0.000   0.003   0.000   0.003
  202        0.000   0.001   0.000   0.001
  203        0.000   0.002   0.000   0.002
  204       -0.000   0.000   0.000   0.000
  205        0.000   0.003   0.000   0.003
  206        0.000   0.001   0.000   0.001
  207       -0.000   0.008   0.000   0.007
  208        0.001   0.013   0.000   0.015
  209       -0.000   0.001   0.000   0.001
  210       -0.000   0.001   0.000   0.001
  211        0.000   0.002   0.000   0.002
  212       -0.000   0.000   0.000   0.000
  213       -0.001   0.002   0.000   0.001
  214       -0.000  -0.000   0.000  -0.000
  215       -0.000   0.000   0.000   0.000
--------------------------------------------------
tot          0.078   1.317   0.000   1.395
 

 total amount of memory used by VASP MPI-rank0    40004. kBytes
=======================================================================

   base      :      30000. kBytes
   nonlr-proj:       3647. kBytes
   fftplans  :       1350. kBytes
   grid      :       3557. kBytes
   one-center:         43. kBytes
   HF        :          9. kBytes
   wavefun   :       1398. kBytes
 
  
  
 General timing and accounting informations for this job:
 ========================================================
  
                  Total CPU time used (sec):     2112.606
                            User time (sec):     2094.222
                          System time (sec):       18.384
                         Elapsed time (sec):     2055.300
  
                   Maximum memory used (kb):      423360.
                   Average memory used (kb):           0.
  
                          Minor page faults:       141187
                          Major page faults:          386
                 Voluntary context switches:        10030
