 running on  512 total cores
 distrk:  each k-point on  512 cores,    1 groups
 distr:  one band on   16 cores,   32 groups
 using from now: INCAR     
 vasp.5.4.4.18Apr17-6-g9f103f2a35 (build Dec 19 2024 10:44:08) gamma-only        
 POSCAR found type information on POSCAR  Si C 
 POSCAR found :  2 types and     215 ions
 scaLAPACK will be used
 LDA part: xc-table for Pade appr. of Perdew

 ----------------------------------------------------------------------------- 
|                                                                             |
|           W    W    AA    RRRRR   N    N  II  N    N   GGGG   !!!           |
|           W    W   A  A   R    R  NN   N  II  NN   N  G    G  !!!           |
|           W    W  A    A  R    R  N N  N  II  N N  N  G       !!!           |
|           W WW W  AAAAAA  RRRRR   N  N N  II  N  N N  G  GGG   !            |
|           WW  WW  A    A  R   R   N   NN  II  N   NN  G    G                |
|           W    W  A    A  R    R  N    N  II  N    N   GGGG   !!!           |
|                                                                             |
|      The number of bands has been changed from the values supplied          |
|      in the INCAR file. This is a result of running the parallel version.   |
|      The orbitals not found in the WAVECAR file will be initialized with    |
|      random numbers, which is usually adequate. For correlated              |
|      calculations, however, you should redo the groundstate calculation.    |
|      I found NBANDS    =      450  now  NBANDS  =     480                   |
|                                                                             |
 ----------------------------------------------------------------------------- 

 found WAVECAR, reading the header
  number of bands has changed, file:   464 present:   480
  trying to continue reading WAVECAR, but it might fail
 POSCAR, INCAR and KPOINTS ok, starting setup
 FFT: planning ...
 reading WAVECAR
 random initialization beyond band           465
 the WAVECAR file was read successfully
 initial charge from wavefunction
 entering main loop

 ----------------------------------------------------------------------------- 
|                                                                             |
|           W    W    AA    RRRRR   N    N  II  N    N   GGGG   !!!           |
|           W    W   A  A   R    R  NN   N  II  NN   N  G    G  !!!           |
|           W    W  A    A  R    R  N N  N  II  N N  N  G       !!!           |
|           W WW W  AAAAAA  RRRRR   N  N N  II  N  N N  G  GGG   !            |
|           WW  WW  A    A  R   R   N   NN  II  N   NN  G    G                |
|           W    W  A    A  R    R  N    N  II  N    N   GGGG   !!!           |
|                                                                             |
|      ALGO=A and IALGO=5X tend to fail with the tetrahedron method           |
|      (e.g. Bloechls method ISMEAR=-5 is not variational)                    |
|      please switch to IMSEAR=0-n, except for DOS calculations               |
|      For DOS calculations use IALGO=53 after preconverging with ISMEAR>=0   |
|          I HOPE YOU KNOW, WHAT YOU ARE  DOING                               |
|                                                                             |
 ----------------------------------------------------------------------------- 

       N       E                     dE             d eps       ncg     rms          ort
 gam= 0.000 g(H,U,f)=  0.213E+00 0.860E-01 0.000E+00 ort(H,U,f) = 0.000E+00 0.000E+00 0.000E+00
SDA:   1    -0.240920347683E+04   -0.24092E+04    0.00000E+00   480   0.299E+00 0.000E+00
 gam= 0.000 trial= 0.400  step= 0.429 mean= 0.400
 gam= 0.161 g(H,U,f)=  0.365E-01 0.116E-01 0.000E+00 ort(H,U,f) = 0.145E-03-0.461E-02 0.000E+00
CGA:   2    -0.240926754448E+04   -0.64068E-01   -0.64212E-01   480   0.481E-01-0.447E-02
 gam= 0.161 trial= 0.401  step= 0.699 mean= 0.401
 gam= 0.403 g(H,U,f)=  0.127E-01 0.674E-02 0.000E+00 ort(H,U,f) =-0.253E-02 0.178E-02 0.000E+00
CGA:   3    -0.240928408604E+04   -0.16542E-01   -0.16573E-01   480   0.194E-01-0.749E-03
 gam= 0.403 trial= 0.416  step= 0.821 mean= 0.416
 gam= 0.389 g(H,U,f)=  0.592E-02 0.162E-02 0.000E+00 ort(H,U,f) =-0.802E-03 0.463E-03 0.000E+00
CGA:   4    -0.240929182862E+04   -0.77426E-02   -0.78378E-02   480   0.754E-02-0.339E-03
 gam= 0.389 trial= 0.437  step= 0.744 mean= 0.437
 gam= 0.375 g(H,U,f)=  0.197E-02 0.862E-03 0.000E+00 ort(H,U,f) =-0.308E-03 0.275E-03 0.000E+00
CGA:   5    -0.240929458612E+04   -0.27575E-02   -0.27573E-02   480   0.283E-02-0.339E-04
 gam= 0.375 trial= 0.452  step= 0.907 mean= 0.452
 gam= 0.592 g(H,U,f)=  0.105E-02 0.627E-03 0.000E+00 ort(H,U,f) =-0.345E-03 0.344E-03 0.000E+00
CGA:   6    -0.240929586354E+04   -0.12774E-02   -0.12779E-02   480   0.167E-02-0.127E-05
 gam= 0.592 trial= 0.475  step= 1.166 mean= 0.475
 gam= 1.018 g(H,U,f)=  0.109E-02 0.617E-03 0.000E+00 ort(H,U,f) =-0.548E-03 0.543E-03 0.000E+00
CGA:   7    -0.240929684043E+04   -0.97690E-03   -0.97629E-03   480   0.171E-02-0.505E-05
 gam= 1.018 trial= 0.509  step= 1.538 mean= 0.509
 gam= 1.964 g(H,U,f)=  0.207E-02 0.127E-02 0.000E+00 ort(H,U,f) =-0.110E-02 0.110E-02 0.000E+00
CGA:   8    -0.240929814786E+04   -0.13074E-02   -0.13071E-02   480   0.335E-02-0.113E-05
 gam= 1.964 trial= 0.561  step= 2.556 mean= 0.561
 gam= 4.908 g(H,U,f)=  0.125E-01 0.393E-02 0.000E+00 ort(H,U,f) =-0.403E-02 0.349E-02 0.000E+00
CGA:   9    -0.240930202671E+04   -0.38788E-02   -0.42775E-02   480   0.164E-01-0.546E-03
 gam= 4.908 trial= 0.660  step= 0.490 mean= 0.660
 gam= 1.981 g(H,U,f)=  0.266E-01 0.602E-02 0.000E+00 ort(H,U,f) =-0.204E-01 0.219E-01 0.000E+00
CGA:  10    -0.240930537992E+04   -0.33532E-02   -0.33731E-02   480   0.326E-01 0.147E-02
 gam= 1.981 trial= 0.652  step= 0.163 mean= 0.652
 gam= 0.000 g(H,U,f)=  0.335E-01 0.688E-02 0.000E+00 ort(H,U,f) =-0.330E-01 0.539E-01 0.000E+00
CGA:  11    -0.240930623097E+04   -0.85105E-03   -0.28927E-02   480   0.404E-01 0.210E-01
 gam= 0.000 trial= 0.628  step= 0.857 mean= 0.628
 gam= 0.476 g(H,U,f)=  0.140E-01 0.528E-02 0.000E+00 ort(H,U,f) =-0.108E-02 0.798E-03 0.000E+00
CGA:  12    -0.240932350370E+04   -0.17273E-01   -0.17319E-01   480   0.192E-01-0.285E-03
 gam= 0.476 trial= 0.639  step= 0.902 mean= 0.639
 gam= 0.581 g(H,U,f)=  0.815E-02 0.304E-02 0.000E+00 ort(H,U,f) =-0.202E-02 0.185E-02 0.000E+00
CGA:  13    -0.240933210921E+04   -0.86055E-02   -0.86213E-02   480   0.112E-01-0.172E-03
 gam= 0.581 trial= 0.652  step= 1.001 mean= 0.652
 gam= 0.765 g(H,U,f)=  0.539E-02 0.316E-02 0.000E+00 ort(H,U,f) =-0.298E-02 0.282E-02 0.000E+00
CGA:  14    -0.240933764006E+04   -0.55309E-02   -0.55441E-02   480   0.855E-02-0.154E-03
 gam= 0.765 trial= 0.670  step= 1.101 mean= 0.670
 gam= 1.064 g(H,U,f)=  0.627E-02 0.283E-02 0.000E+00 ort(H,U,f) =-0.397E-02 0.398E-02 0.000E+00
CGA:  15    -0.240934230339E+04   -0.46633E-02   -0.46419E-02   480   0.910E-02 0.651E-05
 gam= 1.064 trial= 0.691  step= 1.215 mean= 0.691
 gam= 1.345 g(H,U,f)=  0.948E-02 0.275E-02 0.000E+00 ort(H,U,f) =-0.515E-02 0.477E-02 0.000E+00
CGA:  16    -0.240934776608E+04   -0.54627E-02   -0.55289E-02   480   0.122E-01-0.379E-03
 gam= 1.345 trial= 0.717  step= 1.215 mean= 0.717
 gam= 1.437 g(H,U,f)=  0.147E-01 0.283E-02 0.000E+00 ort(H,U,f) =-0.669E-02 0.612E-02 0.000E+00
CGA:  17    -0.240935478569E+04   -0.70196E-02   -0.71230E-02   480   0.176E-01-0.576E-03
 gam= 1.437 trial= 0.742  step= 0.882 mean= 0.742
 gam= 1.084 g(H,U,f)=  0.166E-01 0.251E-02 0.000E+00 ort(H,U,f) =-0.580E-02 0.561E-02 0.000E+00
CGA:  18    -0.240936216666E+04   -0.73810E-02   -0.73861E-02   480   0.191E-01-0.181E-03
 gam= 1.084 trial= 0.749  step= 0.664 mean= 0.749
 gam= 0.802 g(H,U,f)=  0.137E-01 0.160E-02 0.000E+00 ort(H,U,f) =-0.174E-02 0.165E-02 0.000E+00
CGA:  19    -0.240936845882E+04   -0.62922E-02   -0.62671E-02   480   0.153E-01-0.863E-04
 gam= 0.802 trial= 0.745  step= 0.569 mean= 0.745
 gam= 0.706 g(H,U,f)=  0.983E-02 0.976E-03 0.000E+00 ort(H,U,f) = 0.138E-02-0.134E-02 0.000E+00
CGA:  20    -0.240937282122E+04   -0.43624E-02   -0.43283E-02   480   0.108E-01 0.397E-04
 gam= 0.706 trial= 0.736  step= 0.525 mean= 0.736
 gam= 0.670 g(H,U,f)=  0.652E-02 0.719E-03 0.000E+00 ort(H,U,f) = 0.199E-02-0.183E-02 0.000E+00
CGA:  21    -0.240937564607E+04   -0.28248E-02   -0.28458E-02   480   0.723E-02 0.165E-03
 gam= 0.670 trial= 0.726  step= 0.513 mean= 0.726
 gam= 0.643 g(H,U,f)=  0.403E-02 0.616E-03 0.000E+00 ort(H,U,f) = 0.138E-02-0.121E-02 0.000E+00
CGA:  22    -0.240937750367E+04   -0.18576E-02   -0.18836E-02   480   0.465E-02 0.179E-03
 gam= 0.643 trial= 0.715  step= 0.479 mean= 0.715
 gam= 0.613 g(H,U,f)=  0.250E-02 0.354E-03 0.000E+00 ort(H,U,f) = 0.780E-03-0.677E-03 0.000E+00
CGA:  23    -0.240937863125E+04   -0.11276E-02   -0.11402E-02   480   0.285E-02 0.103E-03
 gam= 0.613 trial= 0.703  step= 0.482 mean= 0.703
 gam= 0.649 g(H,U,f)=  0.160E-02 0.253E-03 0.000E+00 ort(H,U,f) = 0.380E-03-0.337E-03 0.000E+00
CGA:  24    -0.240937932789E+04   -0.69664E-03   -0.70259E-03   480   0.185E-02 0.431E-04
 gam= 0.649 trial= 0.692  step= 0.469 mean= 0.692
 gam= 0.627 g(H,U,f)=  0.983E-03 0.177E-03 0.000E+00 ort(H,U,f) = 0.115E-03-0.920E-04 0.000E+00
CGA:  25    -0.240937976520E+04   -0.43731E-03   -0.44020E-03   480   0.116E-02 0.228E-04
 gam= 0.627 trial= 0.681  step= 0.454 mean= 0.681
 gam= 0.638 g(H,U,f)=  0.637E-03 0.104E-03 0.000E+00 ort(H,U,f) = 0.203E-04-0.110E-04 0.000E+00
CGA:  26    -0.240938003102E+04   -0.26582E-03   -0.26671E-03   480   0.741E-03 0.924E-05
 gam= 0.638 trial= 0.670  step= 0.475 mean= 0.670
 gam= 0.730 g(H,U,f)=  0.452E-03 0.886E-04 0.000E+00 ort(H,U,f) = 0.643E-05-0.119E-05 0.000E+00
CGA:  27    -0.240938020767E+04   -0.17665E-03   -0.17736E-03   480   0.541E-03 0.524E-05
 gam= 0.730 trial= 0.660  step= 0.481 mean= 0.660
 gam= 0.777 g(H,U,f)=  0.336E-03 0.842E-04 0.000E+00 ort(H,U,f) =-0.359E-04 0.390E-04 0.000E+00
CGA:  28    -0.240938033842E+04   -0.13075E-03   -0.13106E-03   480   0.420E-03 0.305E-05
 gam= 0.777 trial= 0.651  step= 0.507 mean= 0.651
 gam= 0.880 g(H,U,f)=  0.288E-03 0.824E-04 0.000E+00 ort(H,U,f) =-0.830E-04 0.853E-04 0.000E+00
CGA:  29    -0.240938044527E+04   -0.10684E-03   -0.10706E-03   480   0.370E-03 0.229E-05
 gam= 0.880 trial= 0.644  step= 0.517 mean= 0.644
 gam= 0.920 g(H,U,f)=  0.271E-03 0.693E-04 0.000E+00 ort(H,U,f) =-0.125E-03 0.126E-03 0.000E+00
CGA:  30    -0.240938054137E+04   -0.96106E-04   -0.96163E-04   480   0.340E-03 0.127E-05
 gam= 0.920 trial= 0.637  step= 0.543 mean= 0.637
 gam= 1.063 g(H,U,f)=  0.295E-03 0.672E-04 0.000E+00 ort(H,U,f) =-0.148E-03 0.149E-03 0.000E+00
CGA:  31    -0.240938063409E+04   -0.92720E-04   -0.92729E-04   480   0.362E-03 0.505E-06
 gam= 1.063 trial= 0.633  step= 0.551 mean= 0.633
 gam= 1.061 g(H,U,f)=  0.325E-03 0.591E-04 0.000E+00 ort(H,U,f) =-0.187E-03 0.188E-03 0.000E+00
CGA:  32    -0.240938073402E+04   -0.99924E-04   -0.99916E-04   480   0.384E-03 0.298E-06
 gam= 1.061 trial= 0.629  step= 0.525 mean= 0.629
 gam= 1.065 g(H,U,f)=  0.354E-03 0.550E-04 0.000E+00 ort(H,U,f) =-0.196E-03 0.196E-03 0.000E+00
CGA:  33    -0.240938083493E+04   -0.10092E-03   -0.10093E-03   480   0.409E-03 0.725E-06
 gam= 1.065 trial= 0.623  step= 0.529 mean= 0.623
 gam= 1.037 g(H,U,f)=  0.371E-03 0.531E-04 0.000E+00 ort(H,U,f) =-0.183E-03 0.184E-03 0.000E+00
CGA:  34    -0.240938094318E+04   -0.10825E-03   -0.10831E-03   480   0.424E-03 0.963E-06
 gam= 1.037 trial= 0.619  step= 0.483 mean= 0.619
 gam= 0.937 g(H,U,f)=  0.365E-03 0.319E-04 0.000E+00 ort(H,U,f) =-0.147E-03 0.148E-03 0.000E+00
CGA:  35    -0.240938104575E+04   -0.10257E-03   -0.10264E-03   480   0.397E-03 0.835E-06
 gam= 0.937 trial= 0.612  step= 0.493 mean= 0.612
 gam= 0.939 g(H,U,f)=  0.344E-03 0.288E-04 0.000E+00 ort(H,U,f) =-0.882E-04 0.892E-04 0.000E+00
CGA:  36    -0.240938114377E+04   -0.98014E-04   -0.98121E-04   480   0.373E-03 0.103E-05
 gam= 0.939 trial= 0.606  step= 0.449 mean= 0.606
 gam= 0.773 g(H,U,f)=  0.272E-03 0.164E-04 0.000E+00 ort(H,U,f) =-0.521E-04 0.528E-04 0.000E+00
CGA:  37    -0.240938122759E+04   -0.83821E-04   -0.83875E-04   480   0.288E-03 0.690E-06
 gam= 0.773 trial= 0.598  step= 0.447 mean= 0.598
 gam= 0.816 g(H,U,f)=  0.216E-03 0.191E-04 0.000E+00 ort(H,U,f) =-0.162E-04 0.168E-04 0.000E+00
CGA:  38    -0.240938129203E+04   -0.64446E-04   -0.64527E-04   480   0.235E-03 0.573E-06
 gam= 0.816 trial= 0.591  step= 0.446 mean= 0.591
 gam= 0.761 g(H,U,f)=  0.165E-03 0.137E-04 0.000E+00 ort(H,U,f) = 0.460E-07 0.391E-06 0.000E+00
CGA:  39    -0.240938134445E+04   -0.52417E-04   -0.52464E-04   480   0.179E-03 0.437E-06
 gam= 0.761 trial= 0.583  step= 0.426 mean= 0.583
 gam= 0.747 g(H,U,f)=  0.125E-03 0.878E-05 0.000E+00 ort(H,U,f) = 0.145E-04-0.144E-04 0.000E+00
CGA:  40    -0.240938138260E+04   -0.38147E-04   -0.38149E-04   480   0.134E-03 0.886E-07
 gam= 0.747 trial= 0.575  step= 0.434 mean= 0.575
 gam= 0.739 g(H,U,f)=  0.916E-04 0.705E-05 0.000E+00 ort(H,U,f) = 0.173E-04-0.172E-04 0.000E+00
CGA:  41    -0.240938141159E+04   -0.28988E-04   -0.29005E-04   480   0.987E-04 0.134E-06
 gam= 0.739 trial= 0.568  step= 0.415 mean= 0.568
 gam= 0.000 g(H,U,f)=  0.654E-04 0.413E-05 0.000E+00 ort(H,U,f) = 0.145E-04-0.144E-04 0.000E+00
SDA:  42    -0.240938143204E+04   -0.20455E-04   -0.20477E-04   480   0.696E-04 0.128E-06
 gam= 0.000 trial= 0.561  step= 1.126 mean= 0.561
 gam= 0.500 g(H,U,f)=  0.312E-04 0.363E-05 0.000E+00 ort(H,U,f) =-0.524E-06 0.365E-06 0.000E+00
CGA:  43    -0.240938147120E+04   -0.39157E-04   -0.39185E-04   480   0.348E-04-0.158E-06
 gam= 0.500 trial= 0.589  step= 0.850 mean= 0.589
 gam= 0.584 g(H,U,f)=  0.166E-04 0.372E-05 0.000E+00 ort(H,U,f) = 0.778E-06-0.683E-06 0.000E+00
CGA:  44    -0.240938148598E+04   -0.14780E-04   -0.14764E-04   480   0.203E-04 0.951E-07
 gam= 0.584 trial= 0.602  step= 0.910 mean= 0.602
 gam= 0.562 g(H,U,f)=  0.923E-05 0.220E-05 0.000E+00 ort(H,U,f) =-0.717E-06 0.626E-06 0.000E+00
CGA:  45    -0.240938149525E+04   -0.92715E-05   -0.92831E-05   480   0.114E-04-0.913E-07
 gam= 0.562 trial= 0.617  step= 0.882 mean= 0.617
   1 F= -.24093815E+04 E0= -.24093815E+04  d E =-.240938E+04  mag=     2.0000
 BRION: g(F)=  0.899E+00 g(S)=  0.000E+00
 bond charge predicted
 writing wavefunctions

 ----------------------------------------------------------------------------- 
|                                                                             |
|           W    W    AA    RRRRR   N    N  II  N    N   GGGG   !!!           |
|           W    W   A  A   R    R  NN   N  II  NN   N  G    G  !!!           |
|           W    W  A    A  R    R  N N  N  II  N N  N  G       !!!           |
|           W WW W  AAAAAA  RRRRR   N  N N  II  N  N N  G  GGG   !            |
|           WW  WW  A    A  R   R   N   NN  II  N   NN  G    G                |
|           W    W  A    A  R    R  N    N  II  N    N   GGGG   !!!           |
|                                                                             |
|      ALGO=A and IALGO=5X tend to fail with the tetrahedron method           |
|      (e.g. Bloechls method ISMEAR=-5 is not variational)                    |
|      please switch to IMSEAR=0-n, except for DOS calculations               |
|      For DOS calculations use IALGO=53 after preconverging with ISMEAR>=0   |
|          I HOPE YOU KNOW, WHAT YOU ARE  DOING                               |
|                                                                             |
 ----------------------------------------------------------------------------- 

       N       E                     dE             d eps       ncg     rms          ort
 gam= 0.000 g(H,U,f)=  0.241E+02 0.188E+01 0.000E+00 ort(H,U,f) = 0.000E+00 0.000E+00 0.000E+00
SDA:   1    -0.239705800363E+04    0.12323E+02    0.00000E+00   480   0.260E+02 0.000E+00
 gam= 0.000 trial= 0.631  step= 0.743 mean= 0.631
 gam= 0.289 g(H,U,f)=  0.600E+01 0.150E+01 0.000E+00 ort(H,U,f) =-0.422E+00-0.103E+01 0.000E+00
CGA:   2    -0.240663925567E+04   -0.95813E+01   -0.96615E+01   480   0.751E+01-0.146E+01
 gam= 0.289 trial= 0.636  step= 0.478 mean= 0.636
 gam= 0.255 g(H,U,f)=  0.166E+01 0.247E+00 0.000E+00 ort(H,U,f) = 0.152E+01-0.109E+00 0.000E+00
CGA:   3    -0.240815149985E+04   -0.15122E+01   -0.16943E+01   480   0.191E+01 0.141E+01
 gam= 0.255 trial= 0.628  step= 0.562 mean= 0.628
 gam= 0.337 g(H,U,f)=  0.563E+00 0.819E-01 0.000E+00 ort(H,U,f) = 0.418E-01 0.337E-02 0.000E+00
CGA:   4    -0.240878893946E+04   -0.63744E+00   -0.63793E+00   480   0.645E+00 0.452E-01
 gam= 0.337 trial= 0.625  step= 0.490 mean= 0.625
 gam= 0.432 g(H,U,f)=  0.251E+00 0.279E-01 0.000E+00 ort(H,U,f) = 0.176E-01-0.673E-02 0.000E+00
CGA:   5    -0.240894983907E+04   -0.16090E+00   -0.16174E+00   480   0.279E+00 0.109E-01
 gam= 0.432 trial= 0.618  step= 0.479 mean= 0.618
 gam= 0.450 g(H,U,f)=  0.116E+00 0.909E-02 0.000E+00 ort(H,U,f) = 0.187E-01-0.377E-02 0.000E+00
CGA:   6    -0.240901641447E+04   -0.66575E-01   -0.67943E-01   480   0.125E+00 0.150E-01
 gam= 0.450 trial= 0.611  step= 0.482 mean= 0.611
 gam= 0.545 g(H,U,f)=  0.609E-01 0.738E-02 0.000E+00 ort(H,U,f) = 0.807E-02-0.369E-02 0.000E+00
CGA:   7    -0.240904791694E+04   -0.31502E-01   -0.31836E-01   480   0.683E-01 0.438E-02
 gam= 0.545 trial= 0.605  step= 0.416 mean= 0.605
 gam= 0.436 g(H,U,f)=  0.272E-01 0.254E-02 0.000E+00 ort(H,U,f) = 0.120E-02 0.504E-03 0.000E+00
CGA:   8    -0.240906252674E+04   -0.14610E-01   -0.14693E-01   480   0.298E-01 0.170E-02
 gam= 0.436 trial= 0.595  step= 0.440 mean= 0.595
 gam= 0.595 g(H,U,f)=  0.160E-01 0.173E-02 0.000E+00 ort(H,U,f) = 0.945E-03-0.233E-03 0.000E+00
CGA:   9    -0.240906916690E+04   -0.66402E-02   -0.67061E-02   480   0.177E-01 0.712E-03
 gam= 0.595 trial= 0.588  step= 0.437 mean= 0.588
 gam= 0.505 g(H,U,f)=  0.830E-02 0.638E-03 0.000E+00 ort(H,U,f) = 0.527E-03 0.112E-03 0.000E+00
CGA:  10    -0.240907306090E+04   -0.38940E-02   -0.39565E-02   480   0.893E-02 0.639E-03
 gam= 0.505 trial= 0.580  step= 0.400 mean= 0.580
 gam= 0.558 g(H,U,f)=  0.463E-02 0.362E-03 0.000E+00 ort(H,U,f) = 0.553E-03-0.274E-03 0.000E+00
CGA:  11    -0.240907488081E+04   -0.18199E-02   -0.18504E-02   480   0.499E-02 0.279E-03
 gam= 0.558 trial= 0.571  step= 0.431 mean= 0.571
 gam= 0.637 g(H,U,f)=  0.284E-02 0.333E-03 0.000E+00 ort(H,U,f) = 0.195E-03-0.770E-04 0.000E+00
CGA:  12    -0.240907597940E+04   -0.10986E-02   -0.11094E-02   480   0.318E-02 0.118E-03
 gam= 0.637 trial= 0.564  step= 0.380 mean= 0.564
 gam= 0.584 g(H,U,f)=  0.171E-02 0.149E-03 0.000E+00 ort(H,U,f) = 0.587E-04 0.142E-04 0.000E+00
CGA:  13    -0.240907658994E+04   -0.61054E-03   -0.61689E-03   480   0.185E-02 0.728E-04
 gam= 0.584 trial= 0.555  step= 0.379 mean= 0.555
 gam= 0.650 g(H,U,f)=  0.110E-02 0.102E-03 0.000E+00 ort(H,U,f) = 0.459E-04-0.321E-05 0.000E+00
CGA:  14    -0.240907694477E+04   -0.35483E-03   -0.35932E-03   480   0.121E-02 0.427E-04
 gam= 0.650 trial= 0.546  step= 0.359 mean= 0.546
 gam= 0.630 g(H,U,f)=  0.713E-03 0.469E-04 0.000E+00 ort(H,U,f) = 0.358E-04-0.755E-05 0.000E+00
CGA:  15    -0.240907716301E+04   -0.21824E-03   -0.22160E-03   480   0.760E-03 0.282E-04
 gam= 0.630 trial= 0.537  step= 0.352 mean= 0.537
 gam= 0.661 g(H,U,f)=  0.466E-03 0.364E-04 0.000E+00 ort(H,U,f) = 0.380E-04-0.213E-04 0.000E+00
CGA:  16    -0.240907729753E+04   -0.13452E-03   -0.13669E-03   480   0.502E-03 0.166E-04
 gam= 0.661 trial= 0.527  step= 0.343 mean= 0.527
 gam= 0.642 g(H,U,f)=  0.298E-03 0.244E-04 0.000E+00 ort(H,U,f) = 0.169E-04-0.646E-05 0.000E+00
CGA:  17    -0.240907738418E+04   -0.86655E-04   -0.88059E-04   480   0.322E-03 0.104E-04
 gam= 0.642 trial= 0.518  step= 0.334 mean= 0.518
 gam= 0.665 g(H,U,f)=  0.200E-03 0.143E-04 0.000E+00 ort(H,U,f) = 0.784E-05-0.148E-05 0.000E+00
CGA:  18    -0.240907743825E+04   -0.54067E-04   -0.54961E-04   480   0.214E-03 0.636E-05
 gam= 0.665 trial= 0.509  step= 0.339 mean= 0.509
 gam= 0.682 g(H,U,f)=  0.135E-03 0.105E-04 0.000E+00 ort(H,U,f) = 0.327E-05 0.535E-06 0.000E+00
CGA:  19    -0.240907747481E+04   -0.36565E-04   -0.37063E-04   480   0.146E-03 0.381E-05
 gam= 0.682 trial= 0.501  step= 0.322 mean= 0.501
 gam= 0.637 g(H,U,f)=  0.884E-04 0.466E-05 0.000E+00 ort(H,U,f) = 0.176E-05 0.644E-06 0.000E+00
CGA:  20    -0.240907749840E+04   -0.23583E-04   -0.23935E-04   480   0.930E-04 0.241E-05
 gam= 0.637 trial= 0.492  step= 0.331 mean= 0.492
 gam= 0.701 g(H,U,f)=  0.613E-04 0.393E-05 0.000E+00 ort(H,U,f) = 0.325E-05-0.189E-05 0.000E+00
CGA:  21    -0.240907751385E+04   -0.15455E-04   -0.15652E-04   480   0.653E-04 0.137E-05
 gam= 0.701 trial= 0.484  step= 0.337 mean= 0.484
 gam= 0.702 g(H,U,f)=  0.425E-04 0.331E-05 0.000E+00 ort(H,U,f) = 0.185E-05-0.936E-06 0.000E+00
CGA:  22    -0.240907752492E+04   -0.11065E-04   -0.11174E-04   480   0.458E-04 0.910E-06
 gam= 0.702 trial= 0.476  step= 0.321 mean= 0.476
 gam= 0.676 g(H,U,f)=  0.291E-04 0.189E-05 0.000E+00 ort(H,U,f) = 0.112E-05-0.462E-06 0.000E+00
CGA:  23    -0.240907753229E+04   -0.73716E-05   -0.74479E-05   480   0.310E-04 0.660E-06
 gam= 0.676 trial= 0.469  step= 0.326 mean= 0.469
   2 F= -.24090775E+04 E0= -.24090775E+04  d E =0.303963E+00  mag=     2.0000
 BRION: g(F)=  0.377E+01 g(S)=  0.000E+00 retain N=  1 mean eig= 0.31
 eig:   0.315
 bond charge predicted
 writing wavefunctions

 ----------------------------------------------------------------------------- 
|                                                                             |
|           W    W    AA    RRRRR   N    N  II  N    N   GGGG   !!!           |
|           W    W   A  A   R    R  NN   N  II  NN   N  G    G  !!!           |
|           W    W  A    A  R    R  N N  N  II  N N  N  G       !!!           |
|           W WW W  AAAAAA  RRRRR   N  N N  II  N  N N  G  GGG   !            |
|           WW  WW  A    A  R   R   N   NN  II  N   NN  G    G                |
|           W    W  A    A  R    R  N    N  II  N    N   GGGG   !!!           |
|                                                                             |
|      ALGO=A and IALGO=5X tend to fail with the tetrahedron method           |
|      (e.g. Bloechls method ISMEAR=-5 is not variational)                    |
|      please switch to IMSEAR=0-n, except for DOS calculations               |
|      For DOS calculations use IALGO=53 after preconverging with ISMEAR>=0   |
|          I HOPE YOU KNOW, WHAT YOU ARE  DOING                               |
|                                                                             |
 ----------------------------------------------------------------------------- 

       N       E                     dE             d eps       ncg     rms          ort
 gam= 0.000 g(H,U,f)=  0.105E+02 0.529E+00 0.000E+00 ort(H,U,f) = 0.000E+00 0.000E+00 0.000E+00
SDA:   1    -0.240437142266E+04    0.47061E+01    0.00000E+00   480   0.110E+02 0.000E+00
 gam= 0.000 trial= 0.461  step= 0.821 mean= 0.461
 gam= 0.198 g(H,U,f)=  0.192E+01 0.259E+00 0.000E+00 ort(H,U,f) =-0.716E+00-0.236E+00 0.000E+00
CGA:   2    -0.240876904555E+04   -0.43976E+01   -0.45112E+01   480   0.218E+01-0.952E+00
 gam= 0.198 trial= 0.479  step= 0.589 mean= 0.479
 gam= 0.230 g(H,U,f)=  0.454E+00 0.480E-01 0.000E+00 ort(H,U,f) = 0.452E-02-0.358E-01 0.000E+00
CGA:   3    -0.240935631695E+04   -0.58727E+00   -0.58710E+00   480   0.502E+00-0.313E-01
 gam= 0.230 trial= 0.485  step= 0.661 mean= 0.485
 gam= 0.341 g(H,U,f)=  0.157E+00 0.134E-01 0.000E+00 ort(H,U,f) =-0.365E-02-0.786E-02 0.000E+00
CGA:   4    -0.240951902206E+04   -0.16271E+00   -0.16352E+00   480   0.171E+00-0.115E-01
 gam= 0.341 trial= 0.494  step= 0.618 mean= 0.494
 gam= 0.311 g(H,U,f)=  0.506E-01 0.253E-02 0.000E+00 ort(H,U,f) = 0.487E-03-0.177E-02 0.000E+00
CGA:   5    -0.240957060228E+04   -0.51580E-01   -0.51559E-01   480   0.531E-01-0.128E-02
 gam= 0.311 trial= 0.500  step= 0.627 mean= 0.500
 gam= 0.395 g(H,U,f)=  0.197E-01 0.129E-02 0.000E+00 ort(H,U,f) =-0.366E-03-0.685E-03 0.000E+00
CGA:   6    -0.240958703881E+04   -0.16437E-01   -0.16515E-01   480   0.210E-01-0.105E-02
 gam= 0.395 trial= 0.506  step= 0.611 mean= 0.506
 gam= 0.372 g(H,U,f)=  0.734E-02 0.454E-03 0.000E+00 ort(H,U,f) =-0.135E-03-0.125E-03 0.000E+00
CGA:   7    -0.240959330163E+04   -0.62628E-02   -0.62772E-02   480   0.779E-02-0.260E-03
 gam= 0.372 trial= 0.511  step= 0.630 mean= 0.511
 gam= 0.414 g(H,U,f)=  0.300E-02 0.229E-03 0.000E+00 ort(H,U,f) =-0.298E-04-0.599E-04 0.000E+00
CGA:   8    -0.240959572107E+04   -0.24194E-02   -0.24245E-02   480   0.323E-02-0.897E-04
 gam= 0.414 trial= 0.517  step= 0.613 mean= 0.517
 gam= 0.397 g(H,U,f)=  0.123E-02 0.571E-04 0.000E+00 ort(H,U,f) =-0.112E-04-0.339E-04 0.000E+00
CGA:   9    -0.240959669589E+04   -0.97482E-03   -0.97745E-03   480   0.128E-02-0.451E-04
 gam= 0.397 trial= 0.522  step= 0.651 mean= 0.522
 gam= 0.466 g(H,U,f)=  0.549E-03 0.489E-04 0.000E+00 ort(H,U,f) = 0.664E-05-0.208E-04 0.000E+00
CGA:  10    -0.240959710679E+04   -0.41090E-03   -0.41184E-03   480   0.598E-03-0.141E-04
 gam= 0.466 trial= 0.529  step= 0.574 mean= 0.529
 gam= 0.448 g(H,U,f)=  0.254E-03 0.143E-04 0.000E+00 ort(H,U,f) =-0.226E-05-0.218E-06 0.000E+00
CGA:  11    -0.240959727646E+04   -0.16968E-03   -0.16975E-03   480   0.268E-03-0.247E-05
 gam= 0.448 trial= 0.531  step= 0.618 mean= 0.531
 gam= 0.489 g(H,U,f)=  0.124E-03 0.713E-05 0.000E+00 ort(H,U,f) =-0.408E-06-0.841E-06 0.000E+00
CGA:  12    -0.240959735890E+04   -0.82433E-04   -0.82486E-04   480   0.131E-03-0.125E-05
 gam= 0.489 trial= 0.535  step= 0.551 mean= 0.535
 gam= 0.476 g(H,U,f)=  0.593E-04 0.311E-05 0.000E+00 ort(H,U,f) = 0.126E-05-0.199E-05 0.000E+00
CGA:  13    -0.240959739483E+04   -0.35934E-04   -0.35942E-04   480   0.624E-04-0.722E-06
 gam= 0.476 trial= 0.536  step= 0.585 mean= 0.536
 gam= 0.473 g(H,U,f)=  0.279E-04 0.159E-05 0.000E+00 ort(H,U,f) =-0.421E-06-0.185E-06 0.000E+00
CGA:  14    -0.240959741296E+04   -0.18128E-04   -0.18143E-04   480   0.295E-04-0.606E-06
 gam= 0.473 trial= 0.538  step= 0.563 mean= 0.538
 gam= 0.499 g(H,U,f)=  0.139E-04 0.872E-06 0.000E+00 ort(H,U,f) =-0.141E-06-0.782E-07 0.000E+00
CGA:  15    -0.240959742119E+04   -0.82255E-05   -0.82286E-05   480   0.147E-04-0.219E-06
 gam= 0.499 trial= 0.540  step= 0.564 mean= 0.540
   3 F= -.24095974E+04 E0= -.24095974E+04  d E =-.519889E+00  mag=     2.0000
 BRION: g(F)=  0.159E+00 g(S)=  0.000E+00 retain N=  1 mean eig= 0.28
 eig:   0.276
 bond charge predicted
 writing wavefunctions

 ----------------------------------------------------------------------------- 
|                                                                             |
|           W    W    AA    RRRRR   N    N  II  N    N   GGGG   !!!           |
|           W    W   A  A   R    R  NN   N  II  NN   N  G    G  !!!           |
|           W    W  A    A  R    R  N N  N  II  N N  N  G       !!!           |
|           W WW W  AAAAAA  RRRRR   N  N N  II  N  N N  G  GGG   !            |
|           WW  WW  A    A  R   R   N   NN  II  N   NN  G    G                |
|           W    W  A    A  R    R  N    N  II  N    N   GGGG   !!!           |
|                                                                             |
|      ALGO=A and IALGO=5X tend to fail with the tetrahedron method           |
|      (e.g. Bloechls method ISMEAR=-5 is not variational)                    |
|      please switch to IMSEAR=0-n, except for DOS calculations               |
|      For DOS calculations use IALGO=53 after preconverging with ISMEAR>=0   |
|          I HOPE YOU KNOW, WHAT YOU ARE  DOING                               |
|                                                                             |
 ----------------------------------------------------------------------------- 

       N       E                     dE             d eps       ncg     rms          ort
 gam= 0.000 g(H,U,f)=  0.235E+01 0.165E+00 0.000E+00 ort(H,U,f) = 0.000E+00 0.000E+00 0.000E+00
SDA:   1    -0.240844747852E+04    0.11499E+01    0.00000E+00   480   0.252E+01 0.000E+00
 gam= 0.000 trial= 0.541  step= 0.719 mean= 0.541
 gam= 0.308 g(H,U,f)=  0.620E+00 0.156E+00 0.000E+00 ort(H,U,f) = 0.880E-02-0.105E+00 0.000E+00
CGA:   2    -0.240934759604E+04   -0.90012E+00   -0.90516E+00   480   0.776E+00-0.958E-01
 gam= 0.308 trial= 0.550  step= 0.490 mean= 0.550
 gam= 0.176 g(H,U,f)=  0.121E+00 0.159E-01 0.000E+00 ort(H,U,f) = 0.424E-01-0.169E-01 0.000E+00
CGA:   3    -0.240952901299E+04   -0.18142E+00   -0.18282E+00   480   0.137E+00 0.255E-01
 gam= 0.176 trial= 0.547  step= 0.631 mean= 0.547
 gam= 0.257 g(H,U,f)=  0.319E-01 0.315E-02 0.000E+00 ort(H,U,f) =-0.124E-03-0.967E-03 0.000E+00
CGA:   4    -0.240957352417E+04   -0.44511E-01   -0.44558E-01   480   0.351E-01-0.109E-02
 gam= 0.257 trial= 0.551  step= 0.658 mean= 0.551
 gam= 0.314 g(H,U,f)=  0.982E-02 0.121E-02 0.000E+00 ort(H,U,f) = 0.118E-03-0.505E-03 0.000E+00
CGA:   5    -0.240958494746E+04   -0.11423E-01   -0.11444E-01   480   0.110E-01-0.387E-03
 gam= 0.314 trial= 0.556  step= 0.571 mean= 0.556
 gam= 0.396 g(H,U,f)=  0.392E-02 0.446E-03 0.000E+00 ort(H,U,f) = 0.420E-03-0.464E-03 0.000E+00
CGA:   6    -0.240958806139E+04   -0.31139E-02   -0.31145E-02   480   0.437E-02-0.440E-04
 gam= 0.396 trial= 0.557  step= 0.642 mean= 0.557
 gam= 0.303 g(H,U,f)=  0.122E-02 0.980E-04 0.000E+00 ort(H,U,f) = 0.620E-07-0.400E-04 0.000E+00
CGA:   7    -0.240958945517E+04   -0.13938E-02   -0.13961E-02   480   0.132E-02-0.400E-04
 gam= 0.303 trial= 0.561  step= 0.700 mean= 0.561
 gam= 0.432 g(H,U,f)=  0.498E-03 0.727E-04 0.000E+00 ort(H,U,f) = 0.120E-04-0.213E-04 0.000E+00
CGA:   8    -0.240958991295E+04   -0.45778E-03   -0.45841E-03   480   0.571E-03-0.939E-05
 gam= 0.432 trial= 0.568  step= 0.561 mean= 0.568
 gam= 0.352 g(H,U,f)=  0.186E-03 0.156E-04 0.000E+00 ort(H,U,f) = 0.132E-04-0.144E-04 0.000E+00
CGA:   9    -0.240959007205E+04   -0.15910E-03   -0.15909E-03   480   0.201E-03-0.128E-05
 gam= 0.352 trial= 0.568  step= 0.706 mean= 0.568
 gam= 0.378 g(H,U,f)=  0.693E-04 0.670E-05 0.000E+00 ort(H,U,f) = 0.122E-05-0.215E-05 0.000E+00
CGA:  10    -0.240959014284E+04   -0.70794E-04   -0.70853E-04   480   0.760E-04-0.929E-06
 gam= 0.378 trial= 0.575  step= 0.655 mean= 0.575
 gam= 0.474 g(H,U,f)=  0.314E-04 0.463E-05 0.000E+00 ort(H,U,f) = 0.180E-05-0.209E-05 0.000E+00
CGA:  11    -0.240959016761E+04   -0.24766E-04   -0.24781E-04   480   0.360E-04-0.285E-06
 gam= 0.474 trial= 0.579  step= 0.623 mean= 0.579
 gam= 0.411 g(H,U,f)=  0.137E-04 0.108E-05 0.000E+00 ort(H,U,f) = 0.449E-07-0.285E-06 0.000E+00
CGA:  12    -0.240959017879E+04   -0.11186E-04   -0.11193E-04   480   0.148E-04-0.240E-06
 gam= 0.411 trial= 0.581  step= 0.703 mean= 0.581
 gam= 0.440 g(H,U,f)=  0.601E-05 0.512E-06 0.000E+00 ort(H,U,f) =-0.498E-07-0.195E-06 0.000E+00
CGA:  13    -0.240959018395E+04   -0.51585E-05   -0.51736E-05   480   0.652E-05-0.245E-06
 gam= 0.440 trial= 0.587  step= 0.683 mean= 0.587
   4 F= -.24095902E+04 E0= -.24095902E+04  d E =0.723723E-02  mag=     2.0000
 BRION: g(F)=  0.284E+00 g(S)=  0.000E+00 retain N=  2 mean eig= 0.16
 eig:   0.161  0.161
 bond charge predicted
 writing wavefunctions

 ----------------------------------------------------------------------------- 
|                                                                             |
|           W    W    AA    RRRRR   N    N  II  N    N   GGGG   !!!           |
|           W    W   A  A   R    R  NN   N  II  NN   N  G    G  !!!           |
|           W    W  A    A  R    R  N N  N  II  N N  N  G       !!!           |
|           W WW W  AAAAAA  RRRRR   N  N N  II  N  N N  G  GGG   !            |
|           WW  WW  A    A  R   R   N   NN  II  N   NN  G    G                |
|           W    W  A    A  R    R  N    N  II  N    N   GGGG   !!!           |
|                                                                             |
|      ALGO=A and IALGO=5X tend to fail with the tetrahedron method           |
|      (e.g. Bloechls method ISMEAR=-5 is not variational)                    |
|      please switch to IMSEAR=0-n, except for DOS calculations               |
|      For DOS calculations use IALGO=53 after preconverging with ISMEAR>=0   |
|          I HOPE YOU KNOW, WHAT YOU ARE  DOING                               |
|                                                                             |
 ----------------------------------------------------------------------------- 

       N       E                     dE             d eps       ncg     rms          ort
 gam= 0.000 g(H,U,f)=  0.881E+00 0.442E-01 0.000E+00 ort(H,U,f) = 0.000E+00 0.000E+00 0.000E+00
SDA:   1    -0.240919467129E+04    0.39551E+00    0.00000E+00   480   0.925E+00 0.000E+00
 gam= 0.000 trial= 0.592  step= 0.812 mean= 0.592
 gam= 0.194 g(H,U,f)=  0.156E+00 0.232E-01 0.000E+00 ort(H,U,f) =-0.518E-02-0.198E-01 0.000E+00
CGA:   2    -0.240956769692E+04   -0.37303E+00   -0.37540E+00   480   0.180E+00-0.250E-01
 gam= 0.194 trial= 0.603  step= 0.590 mean= 0.603
 gam= 0.179 g(H,U,f)=  0.269E-01 0.524E-02 0.000E+00 ort(H,U,f) = 0.679E-02-0.506E-02 0.000E+00
CGA:   3    -0.240961919298E+04   -0.51496E-01   -0.51518E-01   480   0.321E-01 0.173E-02
 gam= 0.179 trial= 0.602  step= 0.569 mean= 0.602
 gam= 0.246 g(H,U,f)=  0.692E-02 0.988E-03 0.000E+00 ort(H,U,f) = 0.106E-02-0.915E-03 0.000E+00
CGA:   4    -0.240962840847E+04   -0.92155E-02   -0.92201E-02   480   0.791E-02 0.143E-03
 gam= 0.246 trial= 0.601  step= 0.661 mean= 0.601
 gam= 0.241 g(H,U,f)=  0.178E-02 0.127E-03 0.000E+00 ort(H,U,f) = 0.129E-03-0.135E-03 0.000E+00
CGA:   5    -0.240963103380E+04   -0.26253E-02   -0.26252E-02   480   0.190E-02-0.567E-05
 gam= 0.241 trial= 0.604  step= 0.786 mean= 0.604
 gam= 0.345 g(H,U,f)=  0.594E-03 0.625E-04 0.000E+00 ort(H,U,f) = 0.290E-04-0.444E-04 0.000E+00
CGA:   6    -0.240963178014E+04   -0.74634E-03   -0.74767E-03   480   0.656E-03-0.154E-04
 gam= 0.345 trial= 0.613  step= 0.741 mean= 0.613
 gam= 0.409 g(H,U,f)=  0.236E-03 0.331E-04 0.000E+00 ort(H,U,f) = 0.193E-04-0.224E-04 0.000E+00
CGA:   7    -0.240963202099E+04   -0.24085E-03   -0.24112E-03   480   0.269E-03-0.308E-05
 gam= 0.409 trial= 0.619  step= 0.709 mean= 0.619
 gam= 0.335 g(H,U,f)=  0.809E-04 0.908E-05 0.000E+00 ort(H,U,f) = 0.649E-05-0.673E-05 0.000E+00
CGA:   8    -0.240963211578E+04   -0.94790E-04   -0.94805E-04   480   0.900E-04-0.238E-06
 gam= 0.335 trial= 0.624  step= 0.749 mean= 0.624
 gam= 0.391 g(H,U,f)=  0.311E-04 0.407E-05 0.000E+00 ort(H,U,f) = 0.413E-05-0.386E-05 0.000E+00
CGA:   9    -0.240963214949E+04   -0.33704E-04   -0.33685E-04   480   0.352E-04 0.276E-06
 gam= 0.391 trial= 0.630  step= 0.749 mean= 0.630
 gam= 0.393 g(H,U,f)=  0.126E-04 0.123E-05 0.000E+00 ort(H,U,f) = 0.912E-06-0.104E-05 0.000E+00
CGA:  10    -0.240963216270E+04   -0.13217E-04   -0.13225E-04   480   0.138E-04-0.130E-06
 gam= 0.393 trial= 0.636  step= 0.888 mean= 0.636
 gam= 0.411 g(H,U,f)=  0.540E-05 0.289E-06 0.000E+00 ort(H,U,f) = 0.142E-06-0.160E-06 0.000E+00
CGA:  11    -0.240963216883E+04   -0.61226E-05   -0.61238E-05   480   0.569E-05-0.178E-07
 gam= 0.411 trial= 0.648  step= 0.963 mean= 0.648
   5 F= -.24096322E+04 E0= -.24096322E+04  d E =-.419849E-01  mag=     2.0000
 BRION: g(F)=  0.182E-01 g(S)=  0.000E+00 retain N=  2 mean eig= 4.13
 eig:   0.286  7.972
 bond charge predicted
 writing wavefunctions

 ----------------------------------------------------------------------------- 
|                                                                             |
|           W    W    AA    RRRRR   N    N  II  N    N   GGGG   !!!           |
|           W    W   A  A   R    R  NN   N  II  NN   N  G    G  !!!           |
|           W    W  A    A  R    R  N N  N  II  N N  N  G       !!!           |
|           W WW W  AAAAAA  RRRRR   N  N N  II  N  N N  G  GGG   !            |
|           WW  WW  A    A  R   R   N   NN  II  N   NN  G    G                |
|           W    W  A    A  R    R  N    N  II  N    N   GGGG   !!!           |
|                                                                             |
|      ALGO=A and IALGO=5X tend to fail with the tetrahedron method           |
|      (e.g. Bloechls method ISMEAR=-5 is not variational)                    |
|      please switch to IMSEAR=0-n, except for DOS calculations               |
|      For DOS calculations use IALGO=53 after preconverging with ISMEAR>=0   |
|          I HOPE YOU KNOW, WHAT YOU ARE  DOING                               |
|                                                                             |
 ----------------------------------------------------------------------------- 

       N       E                     dE             d eps       ncg     rms          ort
 gam= 0.000 g(H,U,f)=  0.198E+00 0.178E-01 0.000E+00 ort(H,U,f) = 0.000E+00 0.000E+00 0.000E+00
SDA:   1    -0.240953971173E+04    0.92451E-01    0.00000E+00   480   0.215E+00 0.000E+00
 gam= 0.000 trial= 0.664  step= 0.673 mean= 0.664
 gam= 0.342 g(H,U,f)=  0.568E-01 0.168E-01 0.000E+00 ort(H,U,f) = 0.131E-01-0.126E-01 0.000E+00
CGA:   2    -0.240961213479E+04   -0.72423E-01   -0.72419E-01   480   0.736E-01 0.485E-03
 gam= 0.342 trial= 0.665  step= 0.527 mean= 0.665
 gam= 0.126 g(H,U,f)=  0.797E-02 0.134E-02 0.000E+00 ort(H,U,f) = 0.333E-02-0.163E-02 0.000E+00
CGA:   3    -0.240963134773E+04   -0.19213E-01   -0.19437E-01   480   0.930E-02 0.170E-02
 gam= 0.126 trial= 0.658  step= 0.638 mean= 0.658
 gam= 0.206 g(H,U,f)=  0.172E-02 0.198E-03 0.000E+00 ort(H,U,f) = 0.135E-03-0.130E-03 0.000E+00
CGA:   4    -0.240963438530E+04   -0.30376E-02   -0.30376E-02   480   0.192E-02 0.514E-05
 gam= 0.206 trial= 0.657  step= 0.753 mean= 0.657
 gam= 0.231 g(H,U,f)=  0.413E-03 0.293E-04 0.000E+00 ort(H,U,f) = 0.252E-04-0.294E-04 0.000E+00
CGA:   5    -0.240963510796E+04   -0.72267E-03   -0.72295E-03   480   0.443E-03-0.417E-05
 gam= 0.231 trial= 0.662  step= 0.821 mean= 0.662
 gam= 0.430 g(H,U,f)=  0.156E-03 0.340E-04 0.000E+00 ort(H,U,f) = 0.207E-04-0.213E-04 0.000E+00
CGA:   6    -0.240963528914E+04   -0.18117E-03   -0.18119E-03   480   0.190E-03-0.596E-06
 gam= 0.430 trial= 0.670  step= 0.639 mean= 0.670
 gam= 0.365 g(H,U,f)=  0.595E-04 0.100E-04 0.000E+00 ort(H,U,f) = 0.912E-05-0.939E-05 0.000E+00
CGA:   7    -0.240963534991E+04   -0.60773E-04   -0.60763E-04   480   0.696E-04-0.269E-06
 gam= 0.365 trial= 0.668  step= 0.758 mean= 0.668
 gam= 0.289 g(H,U,f)=  0.187E-04 0.135E-05 0.000E+00 ort(H,U,f) = 0.761E-06-0.107E-05 0.000E+00
CGA:   8    -0.240963537622E+04   -0.26309E-04   -0.26325E-04   480   0.201E-04-0.308E-06
 gam= 0.289 trial= 0.673  step= 0.850 mean= 0.673
 gam= 0.352 g(H,U,f)=  0.643E-05 0.624E-06 0.000E+00 ort(H,U,f) = 0.593E-06-0.586E-06 0.000E+00
CGA:   9    -0.240963538471E+04   -0.84917E-05   -0.84908E-05   480   0.706E-05 0.748E-08
 gam= 0.352 trial= 0.681  step= 0.839 mean= 0.681
   6 F= -.24096354E+04 E0= -.24096354E+04  d E =-.321588E-02  mag=     2.0000
 BRION: g(F)=  0.153E-01 g(S)=  0.000E+00 retain N=  2 mean eig= 0.12
 eig:   0.152  0.089
 bond charge predicted
 writing wavefunctions

 ----------------------------------------------------------------------------- 
|                                                                             |
|           W    W    AA    RRRRR   N    N  II  N    N   GGGG   !!!           |
|           W    W   A  A   R    R  NN   N  II  NN   N  G    G  !!!           |
|           W    W  A    A  R    R  N N  N  II  N N  N  G       !!!           |
|           W WW W  AAAAAA  RRRRR   N  N N  II  N  N N  G  GGG   !            |
|           WW  WW  A    A  R   R   N   NN  II  N   NN  G    G                |
|           W    W  A    A  R    R  N    N  II  N    N   GGGG   !!!           |
|                                                                             |
|      ALGO=A and IALGO=5X tend to fail with the tetrahedron method           |
|      (e.g. Bloechls method ISMEAR=-5 is not variational)                    |
|      please switch to IMSEAR=0-n, except for DOS calculations               |
|      For DOS calculations use IALGO=53 after preconverging with ISMEAR>=0   |
|          I HOPE YOU KNOW, WHAT YOU ARE  DOING                               |
|                                                                             |
 ----------------------------------------------------------------------------- 

       N       E                     dE             d eps       ncg     rms          ort
 gam= 0.000 g(H,U,f)=  0.904E-01 0.590E-02 0.000E+00 ort(H,U,f) = 0.000E+00 0.000E+00 0.000E+00
SDA:   1    -0.240959245882E+04    0.42917E-01    0.00000E+00   480   0.963E-01 0.000E+00
 gam= 0.000 trial= 0.689  step= 0.758 mean= 0.689
 gam= 0.292 g(H,U,f)=  0.222E-01 0.595E-02 0.000E+00 ort(H,U,f) = 0.392E-02-0.411E-02 0.000E+00
CGA:   2    -0.240962893033E+04   -0.36472E-01   -0.36474E-01   480   0.281E-01-0.188E-03
 gam= 0.292 trial= 0.693  step= 0.508 mean= 0.693
 gam= 0.151 g(H,U,f)=  0.358E-02 0.665E-03 0.000E+00 ort(H,U,f) = 0.122E-02-0.911E-03 0.000E+00
CGA:   3    -0.240963598924E+04   -0.70589E-02   -0.71306E-02   480   0.425E-02 0.314E-03
 gam= 0.151 trial= 0.683  step= 0.625 mean= 0.683
 gam= 0.179 g(H,U,f)=  0.683E-03 0.759E-04 0.000E+00 ort(H,U,f) = 0.639E-04-0.603E-04 0.000E+00
CGA:   4    -0.240963733243E+04   -0.13432E-02   -0.13433E-02   480   0.759E-03 0.359E-05
 gam= 0.179 trial= 0.681  step= 0.798 mean= 0.681
 gam= 0.256 g(H,U,f)=  0.179E-03 0.158E-04 0.000E+00 ort(H,U,f) = 0.145E-04-0.153E-04 0.000E+00
CGA:   5    -0.240963763521E+04   -0.30278E-03   -0.30281E-03   480   0.194E-03-0.715E-06
 gam= 0.256 trial= 0.686  step= 0.809 mean= 0.686
 gam= 0.426 g(H,U,f)=  0.684E-04 0.144E-04 0.000E+00 ort(H,U,f) = 0.993E-05-0.976E-05 0.000E+00
CGA:   6    -0.240963771380E+04   -0.78592E-04   -0.78577E-04   480   0.828E-04 0.171E-06
 gam= 0.426 trial= 0.693  step= 0.683 mean= 0.693
 gam= 0.374 g(H,U,f)=  0.264E-04 0.465E-05 0.000E+00 ort(H,U,f) = 0.359E-05-0.333E-05 0.000E+00
CGA:   7    -0.240963774213E+04   -0.28337E-04   -0.28338E-04   480   0.310E-04 0.256E-06
 gam= 0.374 trial= 0.692  step= 0.774 mean= 0.692
 gam= 0.365 g(H,U,f)=  0.100E-04 0.130E-05 0.000E+00 ort(H,U,f) = 0.686E-06-0.869E-06 0.000E+00
CGA:   8    -0.240963775416E+04   -0.12027E-04   -0.12035E-04   480   0.113E-04-0.183E-06
 gam= 0.365 trial= 0.696  step= 0.818 mean= 0.696
 gam= 0.428 g(H,U,f)=  0.426E-05 0.581E-06 0.000E+00 ort(H,U,f) = 0.454E-06-0.467E-06 0.000E+00
CGA:   9    -0.240963775876E+04   -0.45935E-05   -0.45943E-05   480   0.484E-05-0.126E-07
 gam= 0.428 trial= 0.702  step= 0.888 mean= 0.702
   7 F= -.24096378E+04 E0= -.24096378E+04  d E =-.237404E-02  mag=     2.0000
 BRION: g(F)=  0.734E-02 g(S)=  0.000E+00 retain N=  3 mean eig= 0.96
 eig:   0.241  0.241  2.391
 bond charge predicted
 writing wavefunctions

 ----------------------------------------------------------------------------- 
|                                                                             |
|           W    W    AA    RRRRR   N    N  II  N    N   GGGG   !!!           |
|           W    W   A  A   R    R  NN   N  II  NN   N  G    G  !!!           |
|           W    W  A    A  R    R  N N  N  II  N N  N  G       !!!           |
|           W WW W  AAAAAA  RRRRR   N  N N  II  N  N N  G  GGG   !            |
|           WW  WW  A    A  R   R   N   NN  II  N   NN  G    G                |
|           W    W  A    A  R    R  N    N  II  N    N   GGGG   !!!           |
|                                                                             |
|      ALGO=A and IALGO=5X tend to fail with the tetrahedron method           |
|      (e.g. Bloechls method ISMEAR=-5 is not variational)                    |
|      please switch to IMSEAR=0-n, except for DOS calculations               |
|      For DOS calculations use IALGO=53 after preconverging with ISMEAR>=0   |
|          I HOPE YOU KNOW, WHAT YOU ARE  DOING                               |
|                                                                             |
 ----------------------------------------------------------------------------- 

       N       E                     dE             d eps       ncg     rms          ort
 gam= 0.000 g(H,U,f)=  0.347E-01 0.217E-02 0.000E+00 ort(H,U,f) = 0.000E+00 0.000E+00 0.000E+00
SDA:   1    -0.240962129932E+04    0.16455E-01    0.00000E+00   480   0.369E-01 0.000E+00
 gam= 0.000 trial= 0.712  step= 0.802 mean= 0.712
 gam= 0.248 g(H,U,f)=  0.737E-02 0.178E-02 0.000E+00 ort(H,U,f) = 0.114E-02-0.120E-02 0.000E+00
CGA:   2    -0.240963610131E+04   -0.14802E-01   -0.14803E-01   480   0.915E-02-0.561E-04
 gam= 0.248 trial= 0.716  step= 0.508 mean= 0.716
 gam= 0.177 g(H,U,f)=  0.134E-02 0.275E-03 0.000E+00 ort(H,U,f) = 0.411E-03-0.381E-03 0.000E+00
CGA:   3    -0.240963841018E+04   -0.23089E-02   -0.23207E-02   480   0.162E-02 0.294E-04
 gam= 0.177 trial= 0.706  step= 0.606 mean= 0.706
 gam= 0.163 g(H,U,f)=  0.239E-03 0.247E-04 0.000E+00 ort(H,U,f) = 0.202E-04-0.196E-04 0.000E+00
CGA:   4    -0.240963890135E+04   -0.49117E-03   -0.49128E-03   480   0.263E-03 0.618E-06
 gam= 0.163 trial= 0.701  step= 0.826 mean= 0.701
 gam= 0.268 g(H,U,f)=  0.647E-04 0.589E-05 0.000E+00 ort(H,U,f) = 0.642E-05-0.631E-05 0.000E+00
CGA:   5    -0.240963901017E+04   -0.10883E-03   -0.10882E-03   480   0.706E-04 0.101E-06
 gam= 0.268 trial= 0.707  step= 0.843 mean= 0.707
 gam= 0.428 g(H,U,f)=  0.253E-04 0.498E-05 0.000E+00 ort(H,U,f) = 0.330E-05-0.342E-05 0.000E+00
CGA:   6    -0.240963903994E+04   -0.29770E-04   -0.29777E-04   480   0.303E-04-0.112E-06
 gam= 0.428 trial= 0.714  step= 0.710 mean= 0.714
 gam= 0.392 g(H,U,f)=  0.994E-05 0.191E-05 0.000E+00 ort(H,U,f) = 0.153E-05-0.150E-05 0.000E+00
CGA:   7    -0.240963905066E+04   -0.10719E-04   -0.10719E-04   480   0.119E-04 0.237E-07
 gam= 0.392 trial= 0.714  step= 0.750 mean= 0.714
 gam= 0.356 g(H,U,f)=  0.373E-05 0.492E-06 0.000E+00 ort(H,U,f) = 0.361E-06-0.479E-06 0.000E+00
CGA:   8    -0.240963905511E+04   -0.44503E-05   -0.44525E-05   480   0.422E-05-0.117E-06
 gam= 0.356 trial= 0.715  step= 0.844 mean= 0.715
   8 F= -.24096391E+04 E0= -.24096391E+04  d E =-.129636E-02  mag=     2.0000
 BRION: g(F)=  0.221E-02 g(S)=  0.000E+00 retain N=  2 mean eig= 0.69
 eig:   0.256  1.117
 bond charge predicted
 writing wavefunctions

 ----------------------------------------------------------------------------- 
|                                                                             |
|           W    W    AA    RRRRR   N    N  II  N    N   GGGG   !!!           |
|           W    W   A  A   R    R  NN   N  II  NN   N  G    G  !!!           |
|           W    W  A    A  R    R  N N  N  II  N N  N  G       !!!           |
|           W WW W  AAAAAA  RRRRR   N  N N  II  N  N N  G  GGG   !            |
|           WW  WW  A    A  R   R   N   NN  II  N   NN  G    G                |
|           W    W  A    A  R    R  N    N  II  N    N   GGGG   !!!           |
|                                                                             |
|      ALGO=A and IALGO=5X tend to fail with the tetrahedron method           |
|      (e.g. Bloechls method ISMEAR=-5 is not variational)                    |
|      please switch to IMSEAR=0-n, except for DOS calculations               |
|      For DOS calculations use IALGO=53 after preconverging with ISMEAR>=0   |
|          I HOPE YOU KNOW, WHAT YOU ARE  DOING                               |
|                                                                             |
 ----------------------------------------------------------------------------- 

       N       E                     dE             d eps       ncg     rms          ort
 gam= 0.000 g(H,U,f)=  0.194E-01 0.151E-02 0.000E+00 ort(H,U,f) = 0.000E+00 0.000E+00 0.000E+00
SDA:   1    -0.240962974273E+04    0.93079E-02    0.00000E+00   480   0.209E-01 0.000E+00
 gam= 0.000 trial= 0.722  step= 0.742 mean= 0.722
 gam= 0.375 g(H,U,f)=  0.585E-02 0.199E-02 0.000E+00 ort(H,U,f) = 0.122E-02-0.119E-02 0.000E+00
CGA:   2    -0.240963749002E+04   -0.77473E-02   -0.77468E-02   480   0.784E-02 0.230E-04
 gam= 0.375 trial= 0.723  step= 0.486 mean= 0.723
 gam= 0.100 g(H,U,f)=  0.709E-03 0.789E-04 0.000E+00 ort(H,U,f) = 0.231E-03-0.154E-03 0.000E+00
CGA:   3    -0.240963937665E+04   -0.18866E-02   -0.19082E-02   480   0.787E-03 0.763E-04
 gam= 0.100 trial= 0.711  step= 0.795 mean= 0.711
 gam= 0.207 g(H,U,f)=  0.148E-03 0.148E-04 0.000E+00 ort(H,U,f) = 0.728E-05-0.785E-05 0.000E+00
CGA:   4    -0.240963969264E+04   -0.31599E-03   -0.31602E-03   480   0.163E-03-0.571E-06
 gam= 0.207 trial= 0.715  step= 0.768 mean= 0.715
 gam= 0.334 g(H,U,f)=  0.481E-04 0.637E-05 0.000E+00 ort(H,U,f) = 0.699E-05-0.704E-05 0.000E+00
CGA:   5    -0.240963975526E+04   -0.62615E-04   -0.62618E-04   480   0.545E-04-0.494E-07
 gam= 0.334 trial= 0.718  step= 0.742 mean= 0.718
 gam= 0.374 g(H,U,f)=  0.172E-04 0.323E-05 0.000E+00 ort(H,U,f) = 0.255E-05-0.258E-05 0.000E+00
CGA:   6    -0.240963977545E+04   -0.20198E-04   -0.20198E-04   480   0.204E-04-0.299E-07
 gam= 0.374 trial= 0.719  step= 0.753 mean= 0.719
 gam= 0.329 g(H,U,f)=  0.568E-05 0.103E-05 0.000E+00 ort(H,U,f) = 0.815E-06-0.779E-06 0.000E+00
CGA:   7    -0.240963978313E+04   -0.76773E-05   -0.76768E-05   480   0.671E-05 0.358E-07
 gam= 0.329 trial= 0.721  step= 0.715 mean= 0.721
   9 F= -.24096398E+04 E0= -.24096398E+04  d E =-.728017E-03  mag=     2.0000
 BRION: g(F)=  0.915E-03 g(S)=  0.000E+00 retain N=  3 mean eig= 2.75
 eig:   7.850  0.345  0.063
 bond charge predicted
 writing wavefunctions

 ----------------------------------------------------------------------------- 
|                                                                             |
|           W    W    AA    RRRRR   N    N  II  N    N   GGGG   !!!           |
|           W    W   A  A   R    R  NN   N  II  NN   N  G    G  !!!           |
|           W    W  A    A  R    R  N N  N  II  N N  N  G       !!!           |
|           W WW W  AAAAAA  RRRRR   N  N N  II  N  N N  G  GGG   !            |
|           WW  WW  A    A  R   R   N   NN  II  N   NN  G    G                |
|           W    W  A    A  R    R  N    N  II  N    N   GGGG   !!!           |
|                                                                             |
|      ALGO=A and IALGO=5X tend to fail with the tetrahedron method           |
|      (e.g. Bloechls method ISMEAR=-5 is not variational)                    |
|      please switch to IMSEAR=0-n, except for DOS calculations               |
|      For DOS calculations use IALGO=53 after preconverging with ISMEAR>=0   |
|          I HOPE YOU KNOW, WHAT YOU ARE  DOING                               |
|                                                                             |
 ----------------------------------------------------------------------------- 

       N       E                     dE             d eps       ncg     rms          ort
 gam= 0.000 g(H,U,f)=  0.171E-01 0.129E-02 0.000E+00 ort(H,U,f) = 0.000E+00 0.000E+00 0.000E+00
SDA:   1    -0.240963111448E+04    0.86610E-02    0.00000E+00   480   0.183E-01 0.000E+00
 gam= 0.000 trial= 0.720  step= 0.775 mean= 0.720
 gam= 0.353 g(H,U,f)=  0.479E-02 0.169E-02 0.000E+00 ort(H,U,f) = 0.976E-03-0.977E-03 0.000E+00
CGA:   2    -0.240963821932E+04   -0.71048E-02   -0.71046E-02   480   0.648E-02-0.126E-05
 gam= 0.353 trial= 0.723  step= 0.478 mean= 0.723
 gam= 0.123 g(H,U,f)=  0.693E-03 0.102E-03 0.000E+00 ort(H,U,f) = 0.213E-03-0.189E-03 0.000E+00
CGA:   3    -0.240963975661E+04   -0.15373E-02   -0.15501E-02   480   0.795E-03 0.237E-04
 gam= 0.123 trial= 0.711  step= 0.697 mean= 0.711
 gam= 0.222 g(H,U,f)=  0.157E-03 0.199E-04 0.000E+00 ort(H,U,f) = 0.157E-04-0.158E-04 0.000E+00
CGA:   4    -0.240964003485E+04   -0.27824E-03   -0.27824E-03   480   0.177E-03-0.668E-07
 gam= 0.222 trial= 0.710  step= 0.757 mean= 0.710
 gam= 0.324 g(H,U,f)=  0.488E-04 0.842E-05 0.000E+00 ort(H,U,f) = 0.835E-05-0.831E-05 0.000E+00
CGA:   5    -0.240964010174E+04   -0.66893E-04   -0.66893E-04   480   0.572E-04 0.357E-07
 gam= 0.324 trial= 0.713  step= 0.681 mean= 0.713
 gam= 0.402 g(H,U,f)=  0.191E-04 0.393E-05 0.000E+00 ort(H,U,f) = 0.369E-05-0.375E-05 0.000E+00
CGA:   6    -0.240964012125E+04   -0.19506E-04   -0.19506E-04   480   0.230E-04-0.541E-07
 gam= 0.402 trial= 0.711  step= 0.734 mean= 0.711
 gam= 0.270 g(H,U,f)=  0.567E-05 0.552E-06 0.000E+00 ort(H,U,f) = 0.545E-06-0.508E-06 0.000E+00
CGA:   7    -0.240964012969E+04   -0.84397E-05   -0.84393E-05   480   0.622E-05 0.378E-07
 gam= 0.270 trial= 0.712  step= 0.867 mean= 0.712
  10 F= -.24096401E+04 E0= -.24096401E+04  d E =-.346554E-03  mag=     2.0000
 BRION: g(F)=  0.989E-03 g(S)=  0.000E+00 retain N=  3 mean eig= 0.85
 eig:   2.112  0.307  0.119
 bond charge predicted
 writing wavefunctions

 ----------------------------------------------------------------------------- 
|                                                                             |
|           W    W    AA    RRRRR   N    N  II  N    N   GGGG   !!!           |
|           W    W   A  A   R    R  NN   N  II  NN   N  G    G  !!!           |
|           W    W  A    A  R    R  N N  N  II  N N  N  G       !!!           |
|           W WW W  AAAAAA  RRRRR   N  N N  II  N  N N  G  GGG   !            |
|           WW  WW  A    A  R   R   N   NN  II  N   NN  G    G                |
|           W    W  A    A  R    R  N    N  II  N    N   GGGG   !!!           |
|                                                                             |
|      ALGO=A and IALGO=5X tend to fail with the tetrahedron method           |
|      (e.g. Bloechls method ISMEAR=-5 is not variational)                    |
|      please switch to IMSEAR=0-n, except for DOS calculations               |
|      For DOS calculations use IALGO=53 after preconverging with ISMEAR>=0   |
|          I HOPE YOU KNOW, WHAT YOU ARE  DOING                               |
|                                                                             |
 ----------------------------------------------------------------------------- 

       N       E                     dE             d eps       ncg     rms          ort
 gam= 0.000 g(H,U,f)=  0.638E-02 0.292E-03 0.000E+00 ort(H,U,f) = 0.000E+00 0.000E+00 0.000E+00
SDA:   1    -0.240963691140E+04    0.32098E-02    0.00000E+00   480   0.667E-02 0.000E+00
 gam= 0.000 trial= 0.720  step= 0.852 mean= 0.720
 gam= 0.176 g(H,U,f)=  0.105E-02 0.124E-03 0.000E+00 ort(H,U,f) = 0.121E-03-0.128E-03 0.000E+00
CGA:   2    -0.240963975027E+04   -0.28389E-02   -0.28394E-02   480   0.118E-02-0.667E-05
 gam= 0.176 trial= 0.727  step= 0.635 mean= 0.727
 gam= 0.143 g(H,U,f)=  0.144E-03 0.232E-04 0.000E+00 ort(H,U,f) = 0.230E-04-0.218E-04 0.000E+00
CGA:   3    -0.240964012266E+04   -0.37239E-03   -0.37250E-03   480   0.168E-03 0.122E-05
 gam= 0.143 trial= 0.722  step= 0.634 mean= 0.722
 gam= 0.240 g(H,U,f)=  0.343E-04 0.593E-05 0.000E+00 ort(H,U,f) = 0.559E-05-0.564E-05 0.000E+00
CGA:   4    -0.240964017585E+04   -0.53189E-04   -0.53188E-04   480   0.402E-04-0.506E-07
 gam= 0.240 trial= 0.718  step= 0.700 mean= 0.718
 gam= 0.293 g(H,U,f)=  0.104E-04 0.136E-05 0.000E+00 ort(H,U,f) = 0.170E-05-0.169E-05 0.000E+00
CGA:   5    -0.240964018991E+04   -0.14060E-04   -0.14060E-04   480   0.118E-04 0.135E-07
 gam= 0.293 trial= 0.717  step= 0.814 mean= 0.717
 gam= 0.370 g(H,U,f)=  0.381E-05 0.547E-06 0.000E+00 ort(H,U,f) = 0.560E-06-0.514E-06 0.000E+00
CGA:   6    -0.240964019471E+04   -0.47982E-05   -0.47959E-05   480   0.436E-05 0.462E-07
 gam= 0.370 trial= 0.722  step= 0.835 mean= 0.722
  11 F= -.24096402E+04 E0= -.24096402E+04  d E =-.650270E-04  mag=     2.0000
 BRION: g(F)=  0.100E-02 g(S)=  0.000E+00 retain N=  3 mean eig= 0.94
 eig:   2.449  0.244  0.124
 bond charge predicted
 writing wavefunctions

 ----------------------------------------------------------------------------- 
|                                                                             |
|           W    W    AA    RRRRR   N    N  II  N    N   GGGG   !!!           |
|           W    W   A  A   R    R  NN   N  II  NN   N  G    G  !!!           |
|           W    W  A    A  R    R  N N  N  II  N N  N  G       !!!           |
|           W WW W  AAAAAA  RRRRR   N  N N  II  N  N N  G  GGG   !            |
|           WW  WW  A    A  R   R   N   NN  II  N   NN  G    G                |
|           W    W  A    A  R    R  N    N  II  N    N   GGGG   !!!           |
|                                                                             |
|      ALGO=A and IALGO=5X tend to fail with the tetrahedron method           |
|      (e.g. Bloechls method ISMEAR=-5 is not variational)                    |
|      please switch to IMSEAR=0-n, except for DOS calculations               |
|      For DOS calculations use IALGO=53 after preconverging with ISMEAR>=0   |
|          I HOPE YOU KNOW, WHAT YOU ARE  DOING                               |
|                                                                             |
 ----------------------------------------------------------------------------- 

       N       E                     dE             d eps       ncg     rms          ort
 gam= 0.000 g(H,U,f)=  0.420E-02 0.182E-03 0.000E+00 ort(H,U,f) = 0.000E+00 0.000E+00 0.000E+00
SDA:   1    -0.240963805916E+04    0.21308E-02    0.00000E+00   480   0.438E-02 0.000E+00
 gam= 0.000 trial= 0.727  step= 0.888 mean= 0.727
 gam= 0.248 g(H,U,f)=  0.852E-03 0.234E-03 0.000E+00 ort(H,U,f) = 0.127E-03-0.133E-03 0.000E+00
CGA:   2    -0.240964000230E+04   -0.19431E-02   -0.19435E-02   480   0.109E-02-0.613E-05
 gam= 0.248 trial= 0.735  step= 0.478 mean= 0.735
 gam= 0.150 g(H,U,f)=  0.142E-03 0.209E-04 0.000E+00 ort(H,U,f) = 0.424E-04-0.424E-04 0.000E+00
CGA:   3    -0.240964026010E+04   -0.25780E-03   -0.25888E-03   480   0.162E-03-0.378E-07
 gam= 0.150 trial= 0.722  step= 0.714 mean= 0.722
 gam= 0.200 g(H,U,f)=  0.288E-04 0.373E-05 0.000E+00 ort(H,U,f) = 0.299E-05-0.302E-05 0.000E+00
CGA:   4    -0.240964031805E+04   -0.57946E-04   -0.57946E-04   480   0.325E-04-0.338E-07
 gam= 0.200 trial= 0.722  step= 0.728 mean= 0.722
 gam= 0.353 g(H,U,f)=  0.976E-05 0.172E-05 0.000E+00 ort(H,U,f) = 0.187E-05-0.173E-05 0.000E+00
CGA:   5    -0.240964032988E+04   -0.11838E-04   -0.11837E-04   480   0.115E-04 0.141E-06
 gam= 0.353 trial= 0.722  step= 0.755 mean= 0.722
 gam= 0.315 g(H,U,f)=  0.322E-05 0.388E-06 0.000E+00 ort(H,U,f) = 0.385E-06-0.418E-06 0.000E+00
CGA:   6    -0.240964033424E+04   -0.43514E-05   -0.43518E-05   480   0.361E-05-0.327E-07
 gam= 0.315 trial= 0.724  step= 0.911 mean= 0.724
  12 F= -.24096403E+04 E0= -.24096403E+04  d E =-.139523E-03  mag=     2.0000
 BRION: g(F)=  0.478E-03 g(S)=  0.000E+00 retain N=  3 mean eig= 2.06
 eig:   5.770  0.354  0.069
 bond charge predicted
 writing wavefunctions

 ----------------------------------------------------------------------------- 
|                                                                             |
|           W    W    AA    RRRRR   N    N  II  N    N   GGGG   !!!           |
|           W    W   A  A   R    R  NN   N  II  NN   N  G    G  !!!           |
|           W    W  A    A  R    R  N N  N  II  N N  N  G       !!!           |
|           W WW W  AAAAAA  RRRRR   N  N N  II  N  N N  G  GGG   !            |
|           WW  WW  A    A  R   R   N   NN  II  N   NN  G    G                |
|           W    W  A    A  R    R  N    N  II  N    N   GGGG   !!!           |
|                                                                             |
|      ALGO=A and IALGO=5X tend to fail with the tetrahedron method           |
|      (e.g. Bloechls method ISMEAR=-5 is not variational)                    |
|      please switch to IMSEAR=0-n, except for DOS calculations               |
|      For DOS calculations use IALGO=53 after preconverging with ISMEAR>=0   |
|          I HOPE YOU KNOW, WHAT YOU ARE  DOING                               |
|                                                                             |
 ----------------------------------------------------------------------------- 

       N       E                     dE             d eps       ncg     rms          ort
 gam= 0.000 g(H,U,f)=  0.212E-02 0.129E-03 0.000E+00 ort(H,U,f) = 0.000E+00 0.000E+00 0.000E+00
SDA:   1    -0.240963932328E+04    0.10066E-02    0.00000E+00   480   0.225E-02 0.000E+00
 gam= 0.000 trial= 0.733  step= 0.786 mean= 0.733
 gam= 0.269 g(H,U,f)=  0.471E-03 0.136E-03 0.000E+00 ort(H,U,f) = 0.868E-04-0.878E-04 0.000E+00
CGA:   2    -0.240964020751E+04   -0.88424E-03   -0.88430E-03   480   0.607E-03-0.105E-05
 gam= 0.269 trial= 0.736  step= 0.486 mean= 0.736
 gam= 0.159 g(H,U,f)=  0.810E-04 0.153E-04 0.000E+00 ort(H,U,f) = 0.281E-04-0.266E-04 0.000E+00
CGA:   3    -0.240964035466E+04   -0.14714E-03   -0.14746E-03   480   0.963E-04 0.145E-05
 gam= 0.159 trial= 0.723  step= 0.648 mean= 0.723
 gam= 0.154 g(H,U,f)=  0.133E-04 0.146E-05 0.000E+00 ort(H,U,f) = 0.143E-05-0.125E-05 0.000E+00
CGA:   4    -0.240964038594E+04   -0.31283E-04   -0.31290E-04   480   0.148E-04 0.181E-06
 gam= 0.154 trial= 0.720  step= 0.806 mean= 0.720
 gam= 0.312 g(H,U,f)=  0.394E-05 0.667E-06 0.000E+00 ort(H,U,f) = 0.497E-06-0.575E-06 0.000E+00
CGA:   5    -0.240964039191E+04   -0.59644E-05   -0.59676E-05   480   0.461E-05-0.781E-07
 gam= 0.312 trial= 0.724  step= 0.717 mean= 0.724
  13 F= -.24096404E+04 E0= -.24096404E+04  d E =-.576701E-04  mag=     2.0000
 BRION: g(F)=  0.211E-03 g(S)=  0.000E+00 retain N=  3 mean eig= 1.58
 eig:   4.285  0.230  0.230
 bond charge predicted
 writing wavefunctions

 ----------------------------------------------------------------------------- 
|                                                                             |
|           W    W    AA    RRRRR   N    N  II  N    N   GGGG   !!!           |
|           W    W   A  A   R    R  NN   N  II  NN   N  G    G  !!!           |
|           W    W  A    A  R    R  N N  N  II  N N  N  G       !!!           |
|           W WW W  AAAAAA  RRRRR   N  N N  II  N  N N  G  GGG   !            |
|           WW  WW  A    A  R   R   N   NN  II  N   NN  G    G                |
|           W    W  A    A  R    R  N    N  II  N    N   GGGG   !!!           |
|                                                                             |
|      ALGO=A and IALGO=5X tend to fail with the tetrahedron method           |
|      (e.g. Bloechls method ISMEAR=-5 is not variational)                    |
|      please switch to IMSEAR=0-n, except for DOS calculations               |
|      For DOS calculations use IALGO=53 after preconverging with ISMEAR>=0   |
|          I HOPE YOU KNOW, WHAT YOU ARE  DOING                               |
|                                                                             |
 ----------------------------------------------------------------------------- 

       N       E                     dE             d eps       ncg     rms          ort
 gam= 0.000 g(H,U,f)=  0.998E-03 0.587E-04 0.000E+00 ort(H,U,f) = 0.000E+00 0.000E+00 0.000E+00
SDA:   1    -0.240963990703E+04    0.47891E-03    0.00000E+00   480   0.106E-02 0.000E+00
 gam= 0.000 trial= 0.724  step= 0.838 mean= 0.724
 gam= 0.287 g(H,U,f)=  0.227E-03 0.762E-04 0.000E+00 ort(H,U,f) = 0.421E-04-0.415E-04 0.000E+00
CGA:   2    -0.240964034984E+04   -0.44282E-03   -0.44281E-03   480   0.303E-03 0.584E-06
 gam= 0.287 trial= 0.729  step= 0.461 mean= 0.729
 gam= 0.155 g(H,U,f)=  0.397E-04 0.714E-05 0.000E+00 ort(H,U,f) = 0.143E-04-0.139E-04 0.000E+00
CGA:   3    -0.240964041969E+04   -0.69848E-04   -0.69881E-04   480   0.468E-04 0.367E-06
 gam= 0.155 trial= 0.716  step= 0.669 mean= 0.716
 gam= 0.185 g(H,U,f)=  0.770E-05 0.960E-06 0.000E+00 ort(H,U,f) = 0.782E-06-0.821E-06 0.000E+00
CGA:   4    -0.240964043539E+04   -0.15699E-04   -0.15698E-04   480   0.866E-05-0.392E-07
 gam= 0.185 trial= 0.714  step= 0.776 mean= 0.714
 gam= 0.304 g(H,U,f)=  0.234E-05 0.296E-06 0.000E+00 ort(H,U,f) = 0.346E-06-0.358E-06 0.000E+00
CGA:   5    -0.240964043875E+04   -0.33560E-05   -0.33563E-05   480   0.263E-05-0.117E-07
 gam= 0.304 trial= 0.717  step= 0.794 mean= 0.717
  14 F= -.24096404E+04 E0= -.24096404E+04  d E =-.468417E-04  mag=     2.0000
 BRION: g(F)=  0.637E-04 g(S)=  0.000E+00 retain N=  3 mean eig= 1.76
 eig:   4.837  0.268  0.174
 reached required accuracy - stopping structural energy minimisation
 writing wavefunctions
