 vasp.5.4.4.18Apr17-6-g9f103f2a35 (build Jun 14 2024 12:30:39) gamma-only        
 executed on NVIDIA22.7_CrayMPICH date 2025.05.06  13:57:26
 running on  512 total cores
 distrk:  each k-point on  512 cores,    1 groups
 distr:  one band on NCORES_PER_BAND=  16 cores,   32 groups


--------------------------------------------------------------------------------------------------------


 INCAR:
 POTCAR:   PAW_PBE Si 05Jan2001                   
 POTCAR:   PAW_PBE C 08Apr2002                    
 POTCAR:   PAW_PBE Si 05Jan2001                   
   VRHFIN =Si: s2p2                                                             
   LEXCH  = PE                                                                  
   EATOM  =   103.0669 eV,    7.5752 Ry                                         
                                                                                
   TITEL  = PAW_PBE Si 05Jan2001                                                
   LULTRA =        F    use ultrasoft PP ?                                      
   IUNSCR =        1    unscreen: 0-lin 1-nonlin 2-no                           
   RPACOR =    1.500    partial core radius                                     
   POMASS =   28.085; ZVAL   =    4.000    mass and valenz                      
   RCORE  =    1.900    outmost cutoff radius                                   
   RWIGS  =    2.480; RWIGS  =    1.312    wigner-seitz radius (au A)           
   ENMAX  =  245.345; ENMIN  =  184.009 eV                                      
   ICORE  =        2    local potential                                         
   LCOR   =        T    correct aug charges                                     
   LPAW   =        T    paw PP                                                  
   EAUG   =  322.069                                                            
   DEXC   =    -.007                                                            
   RMAX   =    2.944    core radius for proj-oper                               
   RAUG   =    1.300    factor for augmentation sphere                          
   RDEP   =    1.993    radius for radial grids                                 
   QCUT   =   -4.246; QGAM   =    8.493    optimization parameters              
                                                                                
   Description                                                                  
     l     E      TYP  RCUT    TYP  RCUT                                        
     0   .000     23  1.900                                                     
     0   .000     23  1.900                                                     
     1   .000     23  1.900                                                     
     1   .000     23  1.900                                                     
     2   .000      7  1.900                                                     
  local pseudopotential read in
  partial core-charges read in
  atomic valenz-charges read in
  non local Contribution for L=            0  read in
    real space projection operators read in
  non local Contribution for L=            0  read in
    real space projection operators read in
  non local Contribution for L=            1  read in
    real space projection operators read in
  non local Contribution for L=            1  read in
    real space projection operators read in
    PAW grid and wavefunctions read in
 
   number of l-projection  operators is LMAX  =            4
   number of lm-projection operators is LMMAX =            8
 
 POTCAR:   PAW_PBE C 08Apr2002                    
   VRHFIN =C: s2p2                                                              
   LEXCH  = PE                                                                  
   EATOM  =   147.1560 eV,   10.8157 Ry                                         
                                                                                
   TITEL  = PAW_PBE C 08Apr2002                                                 
   LULTRA =        F    use ultrasoft PP ?                                      
   IUNSCR =        0    unscreen: 0-lin 1-nonlin 2-no                           
   RPACOR =     .000    partial core radius                                     
   POMASS =   12.011; ZVAL   =    4.000    mass and valenz                      
   RCORE  =    1.500    outmost cutoff radius                                   
   RWIGS  =    1.630; RWIGS  =     .863    wigner-seitz radius (au A)           
   ENMAX  =  400.000; ENMIN  =  300.000 eV                                      
   ICORE  =        2    local potential                                         
   LCOR   =        T    correct aug charges                                     
   LPAW   =        T    paw PP                                                  
   EAUG   =  644.873                                                            
   DEXC   =     .000                                                            
   RMAX   =    2.266    core radius for proj-oper                               
   RAUG   =    1.300    factor for augmentation sphere                          
   RDEP   =    1.501    radius for radial grids                                 
   RDEPT  =    1.300    core radius for aug-charge                              
   QCUT   =   -5.516; QGAM   =   11.032    optimization parameters              
                                                                                
   Description                                                                  
     l     E      TYP  RCUT    TYP  RCUT                                        
     0   .000     23  1.200                                                     
     0   .000     23  1.200                                                     
     1   .000     23  1.500                                                     
     1  2.500     23  1.500                                                     
     2   .000      7  1.500                                                     
  local pseudopotential read in
  atomic valenz-charges read in
  non local Contribution for L=            0  read in
    real space projection operators read in
  non local Contribution for L=            0  read in
    real space projection operators read in
  non local Contribution for L=            1  read in
    real space projection operators read in
  non local Contribution for L=            1  read in
    real space projection operators read in
    PAW grid and wavefunctions read in
 
   number of l-projection  operators is LMAX  =            4
   number of lm-projection operators is LMMAX =            8
 
 Optimization of the real space projectors (new method)

 maximal supplied QI-value         = 19.84
 optimisation between [QCUT,QGAM] = [ 10.12, 20.44] = [ 28.68,116.96] Ry 
 Optimized for a Real-space Cutoff    1.38 Angstroem

   l    n(q)    QCUT    max X(q) W(low)/X(q) W(high)/X(q)  e(spline) 
   0      8    10.119     8.708    0.16E-04    0.67E-05    0.60E-08
   0      8    10.119   106.241    0.56E-04    0.11E-03    0.54E-07
   1      8    10.119     5.901    0.16E-04    0.16E-05    0.22E-07
   1      8    10.119    73.241    0.22E-03    0.17E-03    0.18E-06
 Optimization of the real space projectors (new method)

 maximal supplied QI-value         = 25.13
 optimisation between [QCUT,QGAM] = [ 10.05, 20.36] = [ 28.30,116.06] Ry 
 Optimized for a Real-space Cutoff    1.38 Angstroem

   l    n(q)    QCUT    max X(q) W(low)/X(q) W(high)/X(q)  e(spline) 
   0      8    10.053     5.582    0.33E-04    0.15E-04    0.75E-07
   0      8    10.053    69.432    0.23E-03    0.38E-03    0.25E-06
   1      8    10.053     2.780    0.76E-04    0.11E-03    0.15E-06
   1      8    10.053     4.549    0.19E-03    0.19E-03    0.27E-06
 PAW_PBE Si 05Jan2001                   :
 energy of atom  1       EATOM= -103.0669
 kinetic energy error for atom=    0.0012 (will be added to EATOM!!)
 PAW_PBE C 08Apr2002                    :
 energy of atom  2       EATOM= -147.1560
 kinetic energy error for atom=    0.0288 (will be added to EATOM!!)
 
 
 POSCAR: Si1 C214                                
  positions in direct lattice
  velocities in cartesian coordinates
 exchange correlation table for  LEXCH =        8
   RHO(1)=    0.500       N(1)  =     2000
   RHO(2)=  100.500       N(2)  =     4000
 


--------------------------------------------------------------------------------------------------------


 ion  position               nearest neighbor table
   1  0.500  0.500  0.500- 108 1.98 131 1.98  16 1.98  71 1.98 162 1.98 215 1.98
   2  0.041  0.041  0.875-  91 1.54 139 1.54  41 1.54 189 1.54
   3  0.042  0.042  0.208-  92 1.53 140 1.53  42 1.54 190 1.54
   4  0.042  0.042  0.542-  93 1.53 141 1.53 191 1.54  43 1.54
   5  0.041  0.375  0.876-  44 1.53 142 1.53 192 1.54  94 1.54
   6  0.043  0.375  0.209- 143 1.53  45 1.53  95 1.54 193 1.54
   7  0.042  0.375  0.542- 144 1.53 194 1.54  96 1.54  46 1.54
   8  0.041  0.708  0.875- 136 1.53  38 1.53  97 1.54 195 1.54
   9  0.042  0.709  0.208-  39 1.54 137 1.54  98 1.54 196 1.54
  10  0.041  0.709  0.542- 138 1.53 197 1.54  99 1.54  40 1.54
  11  0.375  0.041  0.876-  50 1.53 100 1.53 198 1.54 148 1.54
  12  0.375  0.043  0.209- 101 1.53  51 1.53 149 1.54 199 1.54
  13  0.375  0.042  0.542- 102 1.53 200 1.54 150 1.54  52 1.54
  14  0.375  0.375  0.876-  53 1.53 201 1.54 151 1.54 103 1.54
  15  0.377  0.377  0.211-  54 1.53 104 1.54 152 1.54 202 1.55
  16  0.374  0.374  0.552- 105 1.51 153 1.51 203 1.54   1 1.98
  17  0.374  0.708  0.875- 204 1.53  47 1.54 145 1.54 106 1.54
  18  0.375  0.711  0.206- 107 1.53  48 1.53 205 1.53 146 1.54
  19  0.371  0.711  0.542- 108 1.51 206 1.52 147 1.53  49 1.55
  20  0.708  0.041  0.875-  82 1.53  32 1.53 157 1.54 207 1.54
  21  0.709  0.042  0.208-  33 1.54  83 1.54 158 1.54 208 1.54
  22  0.709  0.041  0.542-  84 1.53 209 1.54 159 1.54  34 1.54
  23  0.708  0.374  0.875- 210 1.53  35 1.54  85 1.54 160 1.54
  24  0.711  0.375  0.206- 161 1.53  36 1.53 211 1.53  86 1.54
  25  0.711  0.371  0.542- 162 1.51 212 1.52  87 1.53  37 1.55
  26  0.707  0.707  0.873-  29 1.53  88 1.54 154 1.54 213 1.55
  27  0.709  0.709  0.207-  30 1.53 214 1.54 155 1.54  89 1.54
  28  0.705  0.705  0.539- 215 1.54 156 1.54  90 1.54  31 1.56
  29  0.791  0.791  0.791-  26 1.53  75 1.53 117 1.53 163 1.54
  30  0.792  0.792  0.124-  27 1.53  73 1.53 115 1.53 164 1.54
  31  0.791  0.791  0.457-  74 1.54 116 1.54 165 1.54  28 1.56
  32  0.792  0.124  0.792-  78 1.53  20 1.53 111 1.53 166 1.54
  33  0.792  0.125  0.125-  21 1.54  76 1.54 109 1.54 167 1.54
  34  0.793  0.124  0.458-  77 1.53 110 1.53 168 1.54  22 1.54
  35  0.791  0.457  0.791-  23 1.54 114 1.54 169 1.54  81 1.56
  36  0.793  0.458  0.124-  24 1.53 112 1.53 170 1.54  79 1.54
  37  0.792  0.458  0.458- 171 1.53 113 1.53  25 1.55  80 1.55
  38  0.124  0.792  0.792- 126 1.53  57 1.53   8 1.53 172 1.54
  39  0.125  0.792  0.125-   9 1.54 124 1.54  55 1.54 173 1.54
  40  0.124  0.793  0.458- 125 1.53  56 1.53 174 1.54  10 1.54
  41  0.125  0.125  0.792-  60 1.54 120 1.54   2 1.54 175 1.54
  42  0.126  0.126  0.126-   3 1.54  58 1.54 118 1.54 176 1.54
  43  0.126  0.126  0.459-  59 1.53 119 1.53 177 1.54   4 1.54
  44  0.124  0.458  0.793- 123 1.53   5 1.53 178 1.54  63 1.54
  45  0.126  0.459  0.126-   6 1.53 121 1.53 179 1.54  61 1.54
  46  0.125  0.459  0.459- 180 1.53 122 1.53   7 1.54  62 1.54
  47  0.457  0.791  0.791-  17 1.54  66 1.54 181 1.54 135 1.56
  48  0.458  0.793  0.124-  18 1.53  64 1.53 182 1.54 133 1.54
  49  0.458  0.792  0.458- 183 1.53  65 1.53 134 1.55  19 1.55
  50  0.458  0.124  0.793-  69 1.53  11 1.53 184 1.54 129 1.54
  51  0.459  0.126  0.126-  12 1.53  67 1.53 185 1.54 127 1.54
  52  0.459  0.125  0.459- 186 1.53  68 1.53  13 1.54 128 1.54
  53  0.458  0.458  0.792- 187 1.53  14 1.53 132 1.55  72 1.55
  54  0.459  0.459  0.125- 188 1.53  15 1.53  70 1.54 130 1.54
  55  0.041  0.875  0.041-  91 1.54 190 1.54  39 1.54 136 1.54
  56  0.041  0.876  0.375-  40 1.53 191 1.53 137 1.54  92 1.54
  57  0.041  0.875  0.708- 189 1.53  38 1.53  93 1.54 138 1.54
  58  0.042  0.208  0.042-  94 1.53 193 1.53  42 1.54 139 1.54
  59  0.043  0.209  0.375- 194 1.53  43 1.53  95 1.54 140 1.54
  60  0.042  0.208  0.709-  41 1.54 192 1.54  96 1.54 141 1.54
  61  0.042  0.542  0.042-  97 1.53 196 1.53 142 1.54  45 1.54
  62  0.042  0.542  0.375- 197 1.53 143 1.54  98 1.54  46 1.54
  63  0.041  0.542  0.709- 195 1.53 144 1.54  99 1.54  44 1.54
  64  0.375  0.876  0.041-  48 1.53 100 1.53 145 1.54 199 1.54
  65  0.375  0.876  0.375-  49 1.53 146 1.54 101 1.54 200 1.54
  66  0.374  0.875  0.708- 147 1.53  47 1.54 198 1.54 102 1.54
  67  0.375  0.209  0.043- 103 1.53  51 1.53 202 1.54 148 1.54
  68  0.377  0.211  0.377-  52 1.53 104 1.54 203 1.54 149 1.55
  69  0.375  0.206  0.711- 105 1.53  50 1.53 150 1.53 201 1.54
  70  0.375  0.542  0.042- 106 1.53 151 1.54 205 1.54  54 1.54
  71  0.374  0.552  0.374- 107 1.51 206 1.51 152 1.54   1 1.98
  72  0.371  0.542  0.711- 108 1.51 153 1.52 204 1.53  53 1.55
  73  0.708  0.875  0.041-  82 1.53  30 1.53 208 1.54 154 1.54
  74  0.708  0.875  0.374- 155 1.53  31 1.54  83 1.54 209 1.54
  75  0.707  0.873  0.707-  29 1.53  84 1.54 207 1.54 156 1.55
  76  0.709  0.208  0.042-  33 1.54  85 1.54 211 1.54 157 1.54
  77  0.711  0.206  0.375- 212 1.53  34 1.53 158 1.53  86 1.54
  78  0.709  0.207  0.709-  32 1.53 159 1.54  87 1.54 210 1.54
  79  0.709  0.542  0.041-  88 1.53 160 1.54 214 1.54  36 1.54
  80  0.711  0.542  0.371- 215 1.51 161 1.52  89 1.53  37 1.55
  81  0.705  0.539  0.705- 162 1.54  90 1.54 213 1.54  35 1.56
  82  0.792  0.958  0.958-  20 1.53  73 1.53 163 1.54 109 1.54
  83  0.792  0.958  0.291- 164 1.54  21 1.54  74 1.54 110 1.54
  84  0.791  0.957  0.625-  22 1.53 165 1.53  75 1.54 111 1.54
  85  0.792  0.291  0.958- 166 1.54  76 1.54  23 1.54 112 1.54
  86  0.793  0.291  0.291- 167 1.53 113 1.54  77 1.54  24 1.54
  87  0.794  0.289  0.625-  25 1.53 168 1.53 114 1.53  78 1.54
  88  0.791  0.625  0.957-  79 1.53 169 1.53  26 1.54 115 1.54
  89  0.794  0.625  0.289-  80 1.53 170 1.53 116 1.53  27 1.54
  90  0.789  0.623  0.623- 171 1.53  81 1.54  28 1.54 117 1.55
  91  0.125  0.959  0.959-  55 1.54   2 1.54 172 1.54 118 1.54
  92  0.125  0.959  0.292-   3 1.53 173 1.53  56 1.54 119 1.54
  93  0.124  0.959  0.625- 174 1.53   4 1.53 120 1.54  57 1.54
  94  0.125  0.292  0.959-  58 1.53 175 1.53   5 1.54 121 1.54
  95  0.127  0.293  0.293- 176 1.53  59 1.54   6 1.54 122 1.55
  96  0.125  0.292  0.626- 123 1.53 177 1.54  60 1.54   7 1.54
  97  0.124  0.625  0.959- 178 1.53  61 1.53 124 1.54   8 1.54
  98  0.125  0.626  0.292- 125 1.53 179 1.54   9 1.54  62 1.54
  99  0.124  0.625  0.625- 180 1.53 126 1.54  10 1.54  63 1.54
 100  0.458  0.958  0.958-  11 1.53  64 1.53 127 1.54 181 1.54
 101  0.458  0.959  0.291-  12 1.53 128 1.54  65 1.54 182 1.54
 102  0.458  0.958  0.625-  13 1.53 129 1.54  66 1.54 183 1.54
 103  0.458  0.291  0.959-  67 1.53 130 1.54  14 1.54 184 1.54
 104  0.461  0.295  0.295- 131 1.54  68 1.54  15 1.54 185 1.56
 105  0.458  0.289  0.629-  16 1.51 132 1.52  69 1.53 186 1.55
 106  0.458  0.625  0.958-  70 1.53 133 1.54  17 1.54 187 1.54
 107  0.458  0.629  0.289-  71 1.51 134 1.52  18 1.53 188 1.55
 108  0.448  0.626  0.626-  19 1.51  72 1.51 135 1.54   1 1.98
 109  0.875  0.041  0.041- 139 1.54 190 1.54  33 1.54  82 1.54
 110  0.876  0.041  0.375-  34 1.53 191 1.53  83 1.54 140 1.54
 111  0.875  0.041  0.708- 189 1.53  32 1.53 141 1.54  84 1.54
 112  0.876  0.375  0.041-  36 1.53 142 1.53  85 1.54 193 1.54
 113  0.876  0.375  0.375-  37 1.53  86 1.54 143 1.54 194 1.54
 114  0.875  0.374  0.708-  87 1.53  35 1.54 192 1.54 144 1.54
 115  0.875  0.708  0.041- 136 1.53  30 1.53 196 1.54  88 1.54
 116  0.875  0.708  0.374-  89 1.53  31 1.54 137 1.54 197 1.54
 117  0.873  0.707  0.707-  29 1.53 138 1.54 195 1.54  90 1.55
 118  0.208  0.042  0.042- 148 1.53 199 1.53  42 1.54  91 1.54
 119  0.209  0.043  0.375- 200 1.53  43 1.53 149 1.54  92 1.54
 120  0.208  0.042  0.709-  41 1.54 198 1.54 150 1.54  93 1.54
 121  0.209  0.375  0.043- 151 1.53  45 1.53 202 1.54  94 1.54
 122  0.211  0.377  0.377-  46 1.53 152 1.54 203 1.54  95 1.55
 123  0.206  0.375  0.711- 153 1.53  44 1.53  96 1.53 201 1.54
 124  0.208  0.709  0.042-  39 1.54 145 1.54 205 1.54  97 1.54
 125  0.206  0.711  0.375- 206 1.53  40 1.53  98 1.53 146 1.54
 126  0.207  0.709  0.709-  38 1.53  99 1.54 147 1.54 204 1.54
 127  0.542  0.042  0.042- 157 1.53 208 1.53 100 1.54  51 1.54
 128  0.542  0.042  0.375- 209 1.53 101 1.54 158 1.54  52 1.54
 129  0.542  0.041  0.709- 207 1.53 102 1.54 159 1.54  50 1.54
 130  0.542  0.375  0.042- 160 1.53 103 1.54 211 1.54  54 1.54
 131  0.552  0.374  0.374- 161 1.51 212 1.51 104 1.54   1 1.98
 132  0.542  0.371  0.711- 162 1.51 105 1.52 210 1.53  53 1.55
 133  0.542  0.709  0.041- 154 1.53 106 1.54 214 1.54  48 1.54
 134  0.542  0.711  0.371- 215 1.51 107 1.52 155 1.53  49 1.55
 135  0.539  0.705  0.705- 108 1.54 156 1.54 213 1.54  47 1.56
 136  0.958  0.792  0.958-   8 1.53 115 1.53 163 1.54  55 1.54
 137  0.958  0.792  0.291- 164 1.54   9 1.54 116 1.54  56 1.54
 138  0.957  0.791  0.625-  10 1.53 165 1.53 117 1.54  57 1.54
 139  0.959  0.125  0.959- 109 1.54   2 1.54 166 1.54  58 1.54
 140  0.959  0.125  0.292-   3 1.53 167 1.53 110 1.54  59 1.54
 141  0.959  0.124  0.625- 168 1.53   4 1.53  60 1.54 111 1.54
 142  0.958  0.458  0.958-   5 1.53 112 1.53  61 1.54 169 1.54
 143  0.959  0.458  0.291-   6 1.53  62 1.54 113 1.54 170 1.54
 144  0.958  0.458  0.625-   7 1.53  63 1.54 114 1.54 171 1.54
 145  0.291  0.792  0.958- 172 1.54 124 1.54  17 1.54  64 1.54
 146  0.291  0.793  0.291- 173 1.53  65 1.54 125 1.54  18 1.54
 147  0.289  0.794  0.625-  19 1.53 174 1.53  66 1.53 126 1.54
 148  0.292  0.125  0.959- 118 1.53 175 1.53  11 1.54  67 1.54
 149  0.293  0.127  0.293- 176 1.53 119 1.54  12 1.54  68 1.55
 150  0.292  0.125  0.626-  69 1.53 177 1.54 120 1.54  13 1.54
 151  0.291  0.458  0.959- 121 1.53  70 1.54  14 1.54 178 1.54
 152  0.295  0.461  0.295-  71 1.54  15 1.54 122 1.54 179 1.56
 153  0.289  0.458  0.629-  16 1.51  72 1.52 123 1.53 180 1.55
 154  0.625  0.791  0.957- 133 1.53 181 1.53  26 1.54  73 1.54
 155  0.625  0.794  0.289- 134 1.53 182 1.53  74 1.53  27 1.54
 156  0.623  0.789  0.623- 183 1.53 135 1.54  28 1.54  75 1.55
 157  0.625  0.124  0.959- 184 1.53 127 1.53  76 1.54  20 1.54
 158  0.626  0.125  0.292-  77 1.53 185 1.54  21 1.54 128 1.54
 159  0.625  0.124  0.625- 186 1.53  78 1.54 129 1.54  22 1.54
 160  0.625  0.458  0.958- 130 1.53  79 1.54  23 1.54 187 1.54
 161  0.629  0.458  0.289- 131 1.51  80 1.52  24 1.53 188 1.55
 162  0.626  0.448  0.626- 132 1.51  25 1.51  81 1.54   1 1.98
 163  0.874  0.874  0.874-  82 1.54 136 1.54 189 1.54  29 1.54
 164  0.875  0.875  0.208-  83 1.54 137 1.54 190 1.54  30 1.54
 165  0.874  0.874  0.541-  84 1.53 138 1.53  31 1.54 191 1.54
 166  0.875  0.208  0.875-  85 1.54 192 1.54 139 1.54  32 1.54
 167  0.876  0.208  0.208-  86 1.53 140 1.53 193 1.53  33 1.54
 168  0.876  0.207  0.542-  87 1.53 141 1.53  34 1.54 194 1.54
 169  0.874  0.541  0.874-  88 1.53 195 1.53  35 1.54 142 1.54
 170  0.876  0.542  0.207-  89 1.53 196 1.53  36 1.54 143 1.54
 171  0.875  0.541  0.541-  37 1.53  90 1.53 144 1.54 197 1.54
 172  0.208  0.875  0.875- 198 1.54 145 1.54  91 1.54  38 1.54
 173  0.208  0.876  0.208- 146 1.53  92 1.53 199 1.53  39 1.54
 174  0.207  0.876  0.542- 147 1.53  93 1.53  40 1.54 200 1.54
 175  0.208  0.208  0.876- 201 1.53 148 1.53  94 1.53  41 1.54
 176  0.209  0.209  0.209-  95 1.53 149 1.53 202 1.53  42 1.54
 177  0.209  0.209  0.543-  96 1.54 150 1.54  43 1.54 203 1.56
 178  0.207  0.542  0.876- 204 1.53  97 1.53  44 1.54 151 1.54
 179  0.209  0.543  0.209-  98 1.54 205 1.54  45 1.54 152 1.56
 180  0.208  0.542  0.542-  46 1.53  99 1.53 153 1.55 206 1.55
 181  0.541  0.874  0.874- 154 1.53 207 1.53  47 1.54 100 1.54
 182  0.542  0.876  0.207- 155 1.53 208 1.53  48 1.54 101 1.54
 183  0.541  0.875  0.541-  49 1.53 156 1.53 209 1.54 102 1.54
 184  0.542  0.207  0.876- 210 1.53 157 1.53  50 1.54 103 1.54
 185  0.543  0.209  0.209- 158 1.54 211 1.54  51 1.54 104 1.56
 186  0.542  0.208  0.542-  52 1.53 159 1.53 105 1.55 212 1.55
 187  0.541  0.541  0.875-  53 1.53 213 1.53 160 1.54 106 1.54
 188  0.542  0.542  0.208-  54 1.53 214 1.53 161 1.55 107 1.55
 189  0.958  0.958  0.792-  57 1.53 111 1.53 163 1.54   2 1.54
 190  0.959  0.959  0.125-  55 1.54 109 1.54 164 1.54   3 1.54
 191  0.958  0.958  0.458-  56 1.53 110 1.53   4 1.54 165 1.54
 192  0.958  0.291  0.792- 166 1.54  60 1.54 114 1.54   5 1.54
 193  0.959  0.292  0.125-  58 1.53 167 1.53 112 1.54   6 1.54
 194  0.959  0.291  0.458-  59 1.53   7 1.54 113 1.54 168 1.54
 195  0.957  0.625  0.791-  63 1.53 169 1.53 117 1.54   8 1.54
 196  0.959  0.625  0.124- 170 1.53  61 1.53   9 1.54 115 1.54
 197  0.958  0.625  0.458-  62 1.53  10 1.54 116 1.54 171 1.54
 198  0.291  0.958  0.792- 172 1.54 120 1.54  66 1.54  11 1.54
 199  0.292  0.959  0.125- 118 1.53 173 1.53  64 1.54  12 1.54
 200  0.291  0.959  0.458- 119 1.53  13 1.54  65 1.54 174 1.54
 201  0.291  0.291  0.793- 175 1.53  14 1.54 123 1.54  69 1.54
 202  0.293  0.293  0.127- 176 1.53 121 1.54  67 1.54  15 1.55
 203  0.295  0.295  0.461-  16 1.54  68 1.54 122 1.54 177 1.56
 204  0.289  0.625  0.794-  72 1.53 178 1.53  17 1.53 126 1.54
 205  0.292  0.626  0.125-  18 1.53 179 1.54 124 1.54  70 1.54
 206  0.289  0.629  0.458-  71 1.51  19 1.52 125 1.53 180 1.55
 207  0.625  0.957  0.791- 129 1.53 181 1.53  75 1.54  20 1.54
 208  0.625  0.959  0.124- 182 1.53 127 1.53  21 1.54  73 1.54
 209  0.625  0.958  0.458- 128 1.53  22 1.54  74 1.54 183 1.54
 210  0.625  0.289  0.794- 132 1.53 184 1.53  23 1.53  78 1.54
 211  0.626  0.292  0.125-  24 1.53 185 1.54  76 1.54 130 1.54
 212  0.629  0.289  0.458- 131 1.51  25 1.52  77 1.53 186 1.55
 213  0.623  0.623  0.789- 187 1.53 135 1.54  81 1.54  26 1.55
 214  0.625  0.625  0.124- 188 1.53  27 1.54 133 1.54  79 1.54
 215  0.626  0.626  0.448-  80 1.51 134 1.51  28 1.54   1 1.98
 

IMPORTANT INFORMATION: All symmetrisations will be switched off!
NOSYMM: (Re-)initialisation of all symmetry stuff for point group C_1.

 
 
 KPOINTS: pymatgen v1.1 with grid density = 2210 /

Automatic generation of k-mesh.
Space group operators:
 irot       det(A)        alpha          n_x          n_y          n_z        tau_x        tau_y        tau_z
    1     1.000000     0.000001     1.000000     0.000000     0.000000     0.000000     0.000000     0.000000
 
 Subroutine IBZKPT returns following result:
 ===========================================
 
 Found      1 irreducible k-points:
 
 Following reciprocal coordinates:
            Coordinates               Weight
  0.000000  0.000000  0.000000      1.000000
 
 Following cartesian coordinates:
            Coordinates               Weight
  0.000000  0.000000  0.000000      1.000000
 
 
 Subroutine IBZKPT_HF returns following result:
 ==============================================
 
 Found      1 k-points in 1st BZ
 the following      1 k-points will be used (e.g. in the exchange kernel)
 Following reciprocal coordinates:   # in IRBZ
  0.000000  0.000000  0.000000    1.00000000   1 t-inv F

 ----------------------------------------------------------------------------- 
|                                                                             |
|           W    W    AA    RRRRR   N    N  II  N    N   GGGG   !!!           |
|           W    W   A  A   R    R  NN   N  II  NN   N  G    G  !!!           |
|           W    W  A    A  R    R  N N  N  II  N N  N  G       !!!           |
|           W WW W  AAAAAA  RRRRR   N  N N  II  N  N N  G  GGG   !            |
|           WW  WW  A    A  R   R   N   NN  II  N   NN  G    G                |
|           W    W  A    A  R    R  N    N  II  N    N   GGGG   !!!           |
|                                                                             |
|      The number of bands has been changed from the values supplied          |
|      in the INCAR file. This is a result of running the parallel version.   |
|      The orbitals not found in the WAVECAR file will be initialized with    |
|      random numbers, which is usually adequate. For correlated              |
|      calculations, however, you should redo the groundstate calculation.    |
|      I found NBANDS    =      450  now  NBANDS  =     480                   |
|                                                                             |
 ----------------------------------------------------------------------------- 



--------------------------------------------------------------------------------------------------------




 Dimension of arrays:
   k-points           NKPTS =      1   k-points in BZ     NKDIM =      1   number of bands    NBANDS=    480
   number of dos      NEDOS =    301   number of ions     NIONS =    215
   non local maximal  LDIM  =      4   non local SUM 2l+1 LMDIM =      8
   total plane-waves  NPLWV = 343000
   max r-space proj   IRMAX =   3182   max aug-charges    IRDMAX=   9703
   dimension x,y,z NGX =    70 NGY =   70 NGZ =   70
   dimension x,y,z NGXF=   140 NGYF=  140 NGZF=  140
   support grid    NGXF=   140 NGYF=  140 NGZF=  140
   ions per type =               1 214
   NGX,Y,Z   is equivalent  to a cutoff of  10.93, 10.93, 10.93 a.u.
   NGXF,Y,Z  is equivalent  to a cutoff of  21.86, 21.86, 21.86 a.u.

 SYSTEM =  unknown system                          
 POSCAR =  Si1 C214                                

 Startparameter for this run:
   NWRITE =      2    write-flag & timer
   PREC   = accura    normal or accurate (medium, high low for compatibility)
   ISTART =      1    job   : 0-new  1-cont  2-samecut
   ICHARG =      2    charge: 1-file 2-atom 10-const
   ISPIN  =      2    spin polarized calculation?
   LNONCOLLINEAR =      F non collinear calculations
   LSORBIT =      F    spin-orbit coupling
   INIWAV =      1    electr: 0-lowe 1-rand  2-diag
   LASPH  =      F    aspherical Exc in radial PAW
   METAGGA=      F    non-selfconsistent MetaGGA calc.

 Electronic Relaxation 1
   ENCUT  =  400.0 eV  29.40 Ry    5.42 a.u.  17.36 17.36 17.36*2*pi/ulx,y,z
   ENINI  =  400.0     initial cutoff
   ENAUG  =  644.9 eV  augmentation charge cutoff
   NELM   =    100;   NELMIN=  2; NELMDL=  0     # of ELM steps 
   EDIFF  = 0.1E-04   stopping-criterion for ELM
   LREAL  =      T    real-space projection
   NLSPLINE    = F    spline interpolate recip. space projectors
   LCOMPAT=      F    compatible to vasp.4.4
   GGA_COMPAT  = T    GGA compatible to vasp.4.4-vasp.4.6
   LMAXPAW     = -100 max onsite density
   LMAXMIX     =    2 max onsite mixed and CHGCAR
   VOSKOWN=      0    Vosko Wilk Nusair interpolation
   ROPT   =   -0.00025  -0.00025
 Ionic relaxation
   EDIFFG = -.1E-01   stopping-criterion for IOM
   NSW    =     99    number of steps for IOM
   NBLOCK =      1;   KBLOCK =     99    inner block; outer block 
   IBRION =      1    ionic relax: 0-MD 1-quasi-New 2-CG
   NFREE  =      0    steps in history (QN), initial steepest desc. (CG)
   ISIF   =      2    stress and relaxation
   IWAVPR =     11    prediction:  0-non 1-charg 2-wave 3-comb
   ISYM   =      0    0-nonsym 1-usesym 2-fastsym
   LCORR  =      T    Harris-Foulkes like correction to forces

   POTIM  = 0.5000    time-step for ionic-motion
   TEIN   =    0.0    initial temperature
   TEBEG  =    0.0;   TEEND  =   0.0 temperature during run
   SMASS  =  -3.00    Nose mass-parameter (am)
   estimated Nose-frequenzy (Omega)   =  0.10E-29 period in steps =****** mass=  -0.259E-26a.u.
   SCALEE = 1.0000    scale energy and forces
   NPACO  =    256;   APACO  = 16.0  distance and # of slots for P.C.
   PSTRESS=    0.0 pullay stress

  Mass of Ions in am
   POMASS =  28.09 12.01
  Ionic Valenz
   ZVAL   =   4.00  4.00
  Atomic Wigner-Seitz radii
   RWIGS  =  -1.00 -1.00
  virtual crystal weights 
   VCA    =   1.00  1.00
   NELECT =     860.0000    total number of electrons
   NUPDOWN=       2.0000    fix difference up-down

 DOS related values:
   EMIN   =  10.00;   EMAX   =-10.00  energy-range for DOS
   EFERMI =   0.00
   ISMEAR =    -2;   SIGMA  =   0.05  broadening in eV -4-tet -1-fermi 0-gaus

 Electronic relaxation 2 (details)
   IALGO  =     58    algorithm
   LDIAG  =      F    sub-space diagonalisation (order eigenvalues)
   LSUBROT=      F    optimize rotation matrix (better conditioning)
   TURBO    =      0    0=normal 1=particle mesh
   IRESTART =      0    0=no restart 2=restart with 2 vectors
   NREBOOT  =      0    no. of reboots
   NMIN     =      0    reboot dimension
   EREF     =   0.00    reference energy to select bands
   IMIX   =      4    mixing-type and parameters
     AMIX     =   0.40;   BMIX     =  1.00
     AMIX_MAG =   1.60;   BMIX_MAG =  1.00
     AMIN     =   0.10
     WC   =   100.;   INIMIX=   1;  MIXPRE=   1;  MAXMIX= -45

 Intra band minimization:
   WEIMIN = 0.0010     energy-eigenvalue tresh-hold
   EBREAK =  0.52E-08  absolut break condition
   DEPER  =   0.30     relativ break condition  

   TIME   =   0.40     timestep for ELM

  volume/ion in A,a.u.               =       5.61        37.87
  Fermi-wavevector in a.u.,A,eV,Ry     =   1.462352  2.763445 29.095711  2.138474
  Thomas-Fermi vector in A             =   2.578576
 
 Write flags
   LWAVE        =      T    write WAVECAR
   LDOWNSAMPLE  =      F    k-point downsampling of WAVECAR
   LCHARG       =      F    write CHGCAR
   LVTOT        =      F    write LOCPOT, total local potential
   LVHAR        =      F    write LOCPOT, Hartree potential only
   LELF         =      F    write electronic localiz. function (ELF)
   LORBIT       =     11    0 simple, 1 ext, 2 COOP (PROOUT), +10 PAW based schemes


 Dipole corrections
   LMONO  =      F    monopole corrections only (constant potential shift)
   LDIPOL =      F    correct potential (dipole corrections)
   IDIPOL =      0    1-x, 2-y, 3-z, 4-all directions 
   EPSILON=  1.0000000 bulk dielectric constant

 Exchange correlation treatment:
   GGA     =    --    GGA type
   LEXCH   =     8    internal setting for exchange type
   VOSKOWN=      0    Vosko Wilk Nusair interpolation
   EXXOEP  =     0    0=HF, 1=EXX-LHF (local Hartree Fock) 2=EXX OEP
   LHFCALC =     T    Hartree Fock is set to
   LSYMGRAD=     F    symmetrize gradient (conserves proper symmetry)
   PRECFOCK=fast      Normal, Fast or Accurate (Low or Medium for compatibility)
   LRHFCALC=     F    long range Hartree Fock
   LRSCOR  =     F    long range correlation only (use DFT for short range part)
   LTHOMAS =     F    Thomas Fermi screening in HF
   LMODELHF=     F    short range full HF, long range fraction AEXX
   ENCUT4O =  -1.0   cutoff for four orbital integrals eV
   LMAXFOCK=     4    L truncation for augmentation on plane wave grid
   LMAXFOCKAE=  -1    L truncation for all-electron charge restoration on plane wave grid
   NMAXFOCKAE=   1    number of basis functions for all-electron charge restoration
   LFOCKAEDFT=     F  apply the AE augmentation even for DFT
   NKREDX  =     1    reduce k-point grid by
   NKREDY  =     1    reduce k-point grid by
   NKREDZ  =     1    reduce k-point grid by
   SHIFTRED=     F    shift reduced grid of Gamma
   HFKIDENT=     F    idential grid for each k-point
   ODDONLY =     F    use only odd q-grid points
   EVENONLY=     F    use only even q-grid points
   HFALPHA =   -1.0000 decay constant for conv. correction
   MCALPHA =    0.0000 extent of test-charge in conv. correction in multipole expansion
   AEXX    =    0.2500 exact exchange contribution
   HFSCREEN=    0.2000 screening length (either q_TF or 0.3 A-1)
   HFSCREENC=   0.2000 screening length for correlation (either q_TF or 0.3 A-1)
   HFRCUT  =    0.0000 spherical cutoff for potential kernel
   ALDAX   =    0.7500 LDA exchange part
   AGGAX   =    0.7500 GGA exchange part
   ALDAC   =    1.0000 LDA correlation
   AGGAC   =    1.0000 GGA correlation
   ENCUTFOCK=  -1.0 apply spherical cutoff to Coloumb kernel
   NBANDSGWLOW=     1    first orbital included in HF term
   NBLOCK_FOCK=    64    blocking factor in FOCK_ACC
 Linear response parameters
   LEPSILON=     F    determine dielectric tensor
   LRPA    =     F    only Hartree local field effects (RPA)
   LNABLA  =     F    use nabla operator in PAW spheres
   LVEL    =     F    velocity operator in full k-point grid
   LINTERFAST=   F  fast interpolation
   KINTER  =     0    interpolate to denser k-point grid
   CSHIFT  =0.1000    complex shift for real part using Kramers Kronig
   OMEGAMAX=  -1.0    maximum frequency
   DEG_THRESHOLD= 0.2000000E-02 threshold for treating states as degnerate
   RTIME   =   -0.100 relaxation time in fs
  (WPLASMAI=    0.000 imaginary part of plasma frequency in eV, 0.658/RTIME)
   DFIELD  = 0.0000000 0.0000000 0.0000000 field for delta impulse in time
 
 Orbital magnetization related:
   ORBITALMAG=     F  switch on orbital magnetization
   LCHIMAG   =     F  perturbation theory with respect to B field
   DQ        =  0.001000  dq finite difference perturbation B field
   LLRAUG    =     F  two centre corrections for induced B field



--------------------------------------------------------------------------------------------------------


 quasi-Newton-method for relaxation of ions
 charge density and potential will be updated during run
 spin polarized calculation
 Conjugate gradient for all bands (Kresse, et al. variant)
 preconditioned conjugated gradient                                        
 perform Loewdin sub-space diagonalisation
    ordering is kept fixed
    before iterative eigenvector-optimisation
 modified Broyden-mixing scheme, WC =      100.0
 initial mixing is a Kerker type mixing with AMIX =  0.4000 and BMIX =      1.0000
 Hartree-type preconditioning will be used
 using additional bands            50
 real space projection scheme for non local part
 use partial core corrections
 no Harris-corrections to forces 
 use gradient corrections 
 use of overlap-Matrix (Vanderbilt PP)
 partial occupancies read from INCAR or WAVECAR (fixed during run)


--------------------------------------------------------------------------------------------------------


  energy-cutoff  :      400.00
  volume of cell :     1206.61
      direct lattice vectors                 reciprocal lattice vectors
    10.646061000  0.000000000  0.000000000     0.093931455  0.000000000  0.000000000
     0.000000000 10.646061000  0.000000000     0.000000000  0.093931455  0.000000000
     0.000000000  0.000000000 10.646061000     0.000000000  0.000000000  0.093931455

  length of vectors
    10.646061000 10.646061000 10.646061000     0.093931455  0.093931455  0.093931455


 
 old parameters found on file WAVECAR:
  energy-cutoff  :      400.00
  volume of cell :     1206.61
      direct lattice vectors                 reciprocal lattice vectors
    10.646061000  0.000000000  0.000000000     0.093931455  0.000000000  0.000000000
     0.000000000 10.646061000  0.000000000     0.000000000  0.093931455  0.000000000
     0.000000000  0.000000000 10.646061000     0.000000000  0.000000000  0.093931455

  length of vectors

 
 k-points in units of 2pi/SCALE and weight: pymatgen v1.1 with grid density = 2210 /
   0.00000000  0.00000000  0.00000000       1.000
 
 k-points in reciprocal lattice and weights: pymatgen v1.1 with grid density = 2210 /
   0.00000000  0.00000000  0.00000000       1.000
 
 position of ions in fractional coordinates (direct lattice) 
   0.50000000  0.50000000  0.50000000
   0.04143262  0.04143262  0.87512716
   0.04213660  0.04213660  0.20839857
   0.04172565  0.04172565  0.54184528
   0.04133393  0.37476330  0.87580341
   0.04281180  0.37536780  0.20891649
   0.04187990  0.37505469  0.54196719
   0.04073475  0.70821089  0.87471631
   0.04151328  0.70876322  0.20784998
   0.04088282  0.70850032  0.54154237
   0.37476330  0.04133393  0.87580341
   0.37536780  0.04281180  0.20891649
   0.37505469  0.04187990  0.54196719
   0.37468814  0.37468814  0.87583578
   0.37692597  0.37692597  0.21062876
   0.37382265  0.37382265  0.55210728
   0.37415446  0.70834830  0.87522748
   0.37458742  0.71061246  0.20625540
   0.37114630  0.71090217  0.54180397
   0.70821089  0.04073475  0.87471631
   0.70876322  0.04151328  0.20784998
   0.70850032  0.04088282  0.54154237
   0.70834830  0.37415446  0.87522748
   0.71061246  0.37458742  0.20625540
   0.71090217  0.37114630  0.54180397
   0.70719598  0.70719598  0.87323246
   0.70879453  0.70879453  0.20710448
   0.70523373  0.70523373  0.53908905
   0.79060277  0.79060277  0.79060277
   0.79182437  0.79182437  0.12396081
   0.79093238  0.79093238  0.45717231
   0.79182437  0.12396081  0.79182437
   0.79220069  0.12491877  0.12491877
   0.79294670  0.12375325  0.45829113
   0.79093238  0.45717231  0.79093238
   0.79294670  0.45829113  0.12375325
   0.79228426  0.45769062  0.45769062
   0.12396081  0.79182437  0.79182437
   0.12491877  0.79220069  0.12491877
   0.12375325  0.79294670  0.45829113
   0.12491877  0.12491877  0.79220069
   0.12564623  0.12564623  0.12564623
   0.12576103  0.12576103  0.45882730
   0.12375325  0.45829113  0.79294670
   0.12576103  0.45882730  0.12576103
   0.12545774  0.45899307  0.45899307
   0.45717231  0.79093238  0.79093238
   0.45829113  0.79294670  0.12375325
   0.45769062  0.79228426  0.45769062
   0.45829113  0.12375325  0.79294670
   0.45882730  0.12576103  0.12576103
   0.45899307  0.12545774  0.45899307
   0.45769062  0.45769062  0.79228426
   0.45899307  0.45899307  0.12545774
   0.04143262  0.87512716  0.04143262
   0.04133393  0.87580341  0.37476330
   0.04073475  0.87471631  0.70821089
   0.04213660  0.20839857  0.04213660
   0.04281180  0.20891649  0.37536780
   0.04151328  0.20784998  0.70876322
   0.04172565  0.54184528  0.04172565
   0.04187990  0.54196719  0.37505469
   0.04088282  0.54154237  0.70850032
   0.37476330  0.87580341  0.04133393
   0.37468814  0.87583578  0.37468814
   0.37415446  0.87522748  0.70834830
   0.37536780  0.20891649  0.04281180
   0.37692597  0.21062876  0.37692597
   0.37458742  0.20625540  0.71061246
   0.37505469  0.54196719  0.04187990
   0.37382265  0.55210728  0.37382265
   0.37114630  0.54180397  0.71090217
   0.70821089  0.87471631  0.04073475
   0.70834830  0.87522748  0.37415446
   0.70719598  0.87323246  0.70719598
   0.70876322  0.20784998  0.04151328
   0.71061246  0.20625540  0.37458742
   0.70879453  0.20710448  0.70879453
   0.70850032  0.54154237  0.04088282
   0.71090217  0.54180397  0.37114630
   0.70523373  0.53908905  0.70523373
   0.79160143  0.95786340  0.95786340
   0.79215002  0.95848672  0.29123678
   0.79108351  0.95718820  0.62463220
   0.79215002  0.29123678  0.95848672
   0.79289552  0.29120547  0.29120547
   0.79374460  0.28938754  0.62541258
   0.79108351  0.62463220  0.95718820
   0.79374460  0.62541258  0.28938754
   0.78937124  0.62307403  0.62307403
   0.12487284  0.95856738  0.95856738
   0.12528369  0.95926525  0.29178911
   0.12419659  0.95866607  0.62523670
   0.12528369  0.29178911  0.95926525
   0.12676754  0.29280402  0.29280402
   0.12477252  0.29165170  0.62584554
   0.12419659  0.62523670  0.95866607
   0.12477252  0.62584554  0.29165170
   0.12416422  0.62531186  0.62531186
   0.45815472  0.95827435  0.95827435
   0.45845763  0.95911718  0.29149968
   0.45803281  0.95812010  0.62494531
   0.45845763  0.29149968  0.95911718
   0.46091095  0.29476627  0.29476627
   0.45819603  0.28909783  0.62885370
   0.45803281  0.62494531  0.95812010
   0.45819603  0.62885370  0.28909783
   0.44789272  0.62617735  0.62617735
   0.87512716  0.04143262  0.04143262
   0.87580341  0.04133393  0.37476330
   0.87471631  0.04073475  0.70821089
   0.87580341  0.37476330  0.04133393
   0.87583578  0.37468814  0.37468814
   0.87522748  0.37415446  0.70834830
   0.87471631  0.70821089  0.04073475
   0.87522748  0.70834830  0.37415446
   0.87323246  0.70719598  0.70719598
   0.20839857  0.04213660  0.04213660
   0.20891649  0.04281180  0.37536780
   0.20784998  0.04151328  0.70876322
   0.20891649  0.37536780  0.04281180
   0.21062876  0.37692597  0.37692597
   0.20625540  0.37458742  0.71061246
   0.20784998  0.70876322  0.04151328
   0.20625540  0.71061246  0.37458742
   0.20710448  0.70879453  0.70879453
   0.54184528  0.04172565  0.04172565
   0.54196719  0.04187990  0.37505469
   0.54154237  0.04088282  0.70850032
   0.54196719  0.37505469  0.04187990
   0.55210728  0.37382265  0.37382265
   0.54180397  0.37114630  0.71090217
   0.54154237  0.70850032  0.04088282
   0.54180397  0.71090217  0.37114630
   0.53908905  0.70523373  0.70523373
   0.95786340  0.79160143  0.95786340
   0.95848672  0.79215002  0.29123678
   0.95718820  0.79108351  0.62463220
   0.95856738  0.12487284  0.95856738
   0.95926525  0.12528369  0.29178911
   0.95866607  0.12419659  0.62523670
   0.95827435  0.45815472  0.95827435
   0.95911718  0.45845763  0.29149968
   0.95812010  0.45803281  0.62494531
   0.29123678  0.79215002  0.95848672
   0.29120547  0.79289552  0.29120547
   0.28938754  0.79374460  0.62541258
   0.29178911  0.12528369  0.95926525
   0.29280402  0.12676754  0.29280402
   0.29165170  0.12477252  0.62584554
   0.29149968  0.45845763  0.95911718
   0.29476627  0.46091095  0.29476627
   0.28909783  0.45819603  0.62885370
   0.62463220  0.79108351  0.95718820
   0.62541258  0.79374460  0.28938754
   0.62307403  0.78937124  0.62307403
   0.62523670  0.12419659  0.95866607
   0.62584554  0.12477252  0.29165170
   0.62531186  0.12416422  0.62531186
   0.62494531  0.45803281  0.95812010
   0.62885370  0.45819603  0.28909783
   0.62617735  0.44789272  0.62617735
   0.87435377  0.87435377  0.87435377
   0.87508123  0.87508123  0.20779931
   0.87423897  0.87423897  0.54117270
   0.87508123  0.20779931  0.87508123
   0.87603919  0.20817563  0.20817563
   0.87624675  0.20705330  0.54170887
   0.87423897  0.54117270  0.87423897
   0.87624675  0.54170887  0.20705330
   0.87454226  0.54100693  0.54100693
   0.20779931  0.87508123  0.87508123
   0.20817563  0.87603919  0.20817563
   0.20705330  0.87624675  0.54170887
   0.20817563  0.20817563  0.87603919
   0.20939723  0.20939723  0.20939723
   0.20906762  0.20906762  0.54282769
   0.20705330  0.54170887  0.87624675
   0.20906762  0.54282769  0.20906762
   0.20771574  0.54230938  0.54230938
   0.54117270  0.87423897  0.87423897
   0.54170887  0.87624675  0.20705330
   0.54100693  0.87454226  0.54100693
   0.54170887  0.20705330  0.87624675
   0.54282769  0.20906762  0.20906762
   0.54230938  0.20771574  0.54230938
   0.54100693  0.54100693  0.87454226
   0.54230938  0.54230938  0.20771574
   0.95786340  0.95786340  0.79160143
   0.95856738  0.95856738  0.12487284
   0.95827435  0.95827435  0.45815472
   0.95848672  0.29123678  0.79215002
   0.95926525  0.29178911  0.12528369
   0.95911718  0.29149968  0.45845763
   0.95718820  0.62463220  0.79108351
   0.95866607  0.62523670  0.12419659
   0.95812010  0.62494531  0.45803281
   0.29123678  0.95848672  0.79215002
   0.29178911  0.95926525  0.12528369
   0.29149968  0.95911718  0.45845763
   0.29120547  0.29120547  0.79289552
   0.29280402  0.29280402  0.12676754
   0.29476627  0.29476627  0.46091095
   0.28938754  0.62541258  0.79374460
   0.29165170  0.62584554  0.12477252
   0.28909783  0.62885370  0.45819603
   0.62463220  0.95718820  0.79108351
   0.62523670  0.95866607  0.12419659
   0.62494531  0.95812010  0.45803281
   0.62541258  0.28938754  0.79374460
   0.62584554  0.29165170  0.12477252
   0.62885370  0.28909783  0.45819603
   0.62307403  0.62307403  0.78937124
   0.62531186  0.62531186  0.12416422
   0.62617735  0.62617735  0.44789272
 
 position of ions in cartesian coordinates  (Angst):
   5.32303050  5.32303050  5.32303050
   0.44109419  0.44109419  9.31665717
   0.44858885  0.44858885  2.21862387
   0.44421380  0.44421380  5.76851786
   0.44004352  3.98975292  9.32385650
   0.45577701  3.99618846  2.22413767
   0.44585600  3.99285514  5.76981575
   0.43366468  7.53965633  9.31228319
   0.44195295  7.54553650  2.21278353
   0.43524095  7.54273768  5.76529305
   3.98975292  0.44004352  9.32385650
   3.99618846  0.45577701  2.22413767
   3.99285514  0.44585600  5.76981575
   3.98895276  3.98895276  9.32420117
   4.01277687  4.01277687  2.24236660
   3.97973869  3.97973869  5.87776782
   3.98327122  7.54111922  9.31772510
   3.98788053  7.56522358  2.19580761
   3.95124615  7.56830787  5.76807810
   7.53965633  0.43366468  9.31228319
   7.54553650  0.44195295  2.21278353
   7.54273768  0.43524095  5.76529305
   7.54111922  3.98327122  9.31772510
   7.56522358  3.98788053  2.19580761
   7.56830787  3.95124615  5.76807810
   7.52885149  7.52885149  9.29648604
   7.54586978  7.54586978  2.20484692
   7.50796128  7.50796128  5.73917495
   8.41680528  8.41680528  8.41680528
   8.42981050  8.42981050  1.31969435
   8.42031440  8.42031440  4.86708425
   8.42981050  1.31969435  8.42981050
   8.43381686  1.32989281  1.32989281
   8.44175897  1.31748465  4.87899533
   8.42031440  4.86708425  8.42031440
   8.44175897  4.87899533  1.31748465
   8.43470660  4.87260221  4.87260221
   1.31969435  8.42981050  8.42981050
   1.32989281  8.43381686  1.32989281
   1.31748465  8.44175897  4.87899533
   1.32989281  1.32989281  8.43381686
   1.33763742  1.33763742  1.33763742
   1.33885956  1.33885956  4.88470347
   1.31748465  4.87899533  8.44175897
   1.33885956  4.88470347  1.33885956
   1.33563073  4.88646822  4.88646822
   4.86708425  8.42031440  8.42031440
   4.87899533  8.44175897  1.31748465
   4.87260221  8.43470660  4.87260221
   4.87899533  1.31748465  8.44175897
   4.88470347  1.33885956  1.33885956
   4.88646822  1.33563073  4.88646822
   4.87260221  4.87260221  8.43470660
   4.88646822  4.88646822  1.33563073
   0.44109419  9.31665717  0.44109419
   0.44004352  9.32385650  3.98975292
   0.43366468  9.31228319  7.53965633
   0.44858885  2.21862387  0.44858885
   0.45577701  2.22413767  3.99618846
   0.44195295  2.21278353  7.54553650
   0.44421380  5.76851786  0.44421380
   0.44585600  5.76981575  3.99285514
   0.43524095  5.76529305  7.54273768
   3.98975292  9.32385650  0.44004352
   3.98895276  9.32420117  3.98895276
   3.98327122  9.31772510  7.54111922
   3.99618846  2.22413767  0.45577701
   4.01277687  2.24236660  4.01277687
   3.98788053  2.19580761  7.56522358
   3.99285514  5.76981575  0.44585600
   3.97973869  5.87776782  3.97973869
   3.95124615  5.76807810  7.56830787
   7.53965633  9.31228319  0.43366468
   7.54111922  9.31772510  3.98327122
   7.52885149  9.29648604  7.52885149
   7.54553650  2.21278353  0.44195295
   7.56522358  2.19580761  3.98788053
   7.54586978  2.20484692  7.54586978
   7.54273768  5.76529305  0.43524095
   7.56830787  5.76807810  3.95124615
   7.50796128  5.73917495  7.50796128
   8.42743713 10.19747215 10.19747215
   8.43327747 10.20410805  3.10052450
   8.42192333 10.19028399  6.64987254
   8.43327747  3.10052450 10.20410805
   8.44121408  3.10019122  3.10019122
   8.45025339  3.08083742  6.65818047
   8.42192333  6.64987254 10.19028399
   8.45025339  6.65818047  3.08083742
   8.40369440  6.63328413  6.63328413
   1.32940383 10.20496681 10.20496681
   1.33377781 10.21239632  3.10640467
   1.32220450 10.20601748  6.65630808
   1.33377781  3.10640467 10.21239632
   1.34957496  3.11720951  3.11720951
   1.32833590  3.10494178  6.66278978
   1.32220450  6.65630808 10.20601748
   1.32833590  6.66278978  3.10494178
   1.32185983  6.65710824  6.65710824
   4.87754314 10.20184720 10.20184720
   4.88076795 10.21082005  3.10332332
   4.87624525 10.20020500  6.65320586
   4.88076795  3.10332332 10.21082005
   4.90688605  3.13809972  3.13809972
   4.87798290  3.07775313  6.69481485
   4.87624525  6.65320586 10.20020500
   4.87798290  6.69481485  3.07775313
   4.76829318  6.66632231  6.66632231
   9.31665717  0.44109419  0.44109419
   9.32385650  0.44004352  3.98975292
   9.31228319  0.43366468  7.53965633
   9.32385650  3.98975292  0.44004352
   9.32420117  3.98895276  3.98895276
   9.31772510  3.98327122  7.54111922
   9.31228319  7.53965633  0.43366468
   9.31772510  7.54111922  3.98327122
   9.29648604  7.52885149  7.52885149
   2.21862387  0.44858885  0.44858885
   2.22413767  0.45577701  3.99618846
   2.21278353  0.44195295  7.54553650
   2.22413767  3.99618846  0.45577701
   2.24236660  4.01277687  4.01277687
   2.19580761  3.98788053  7.56522358
   2.21278353  7.54553650  0.44195295
   2.19580761  7.56522358  3.98788053
   2.20484692  7.54586978  7.54586978
   5.76851786  0.44421380  0.44421380
   5.76981575  0.44585600  3.99285514
   5.76529305  0.43524095  7.54273768
   5.76981575  3.99285514  0.44585600
   5.87776782  3.97973869  3.97973869
   5.76807810  3.95124615  7.56830787
   5.76529305  7.54273768  0.43524095
   5.76807810  7.56830787  3.95124615
   5.73917495  7.50796128  7.50796128
  10.19747215  8.42743713 10.19747215
  10.20410805  8.43327747  3.10052450
  10.19028399  8.42192333  6.64987254
  10.20496681  1.32940383 10.20496681
  10.21239632  1.33377781  3.10640467
  10.20601748  1.32220450  6.65630808
  10.20184720  4.87754314 10.20184720
  10.21082005  4.88076795  3.10332332
  10.20020500  4.87624525  6.65320586
   3.10052450  8.43327747 10.20410805
   3.10019122  8.44121408  3.10019122
   3.08083742  8.45025339  6.65818047
   3.10640467  1.33377781 10.21239632
   3.11720951  1.34957496  3.11720951
   3.10494178  1.32833590  6.66278978
   3.10332332  4.88076795 10.21082005
   3.13809972  4.90688605  3.13809972
   3.07775313  4.87798290  6.69481485
   6.64987254  8.42192333 10.19028399
   6.65818047  8.45025339  3.08083742
   6.63328413  8.40369440  6.63328413
   6.65630808  1.32220450 10.20601748
   6.66278978  1.32833590  3.10494178
   6.65710824  1.32185983  6.65710824
   6.65320586  4.87624525 10.20020500
   6.69481485  4.87798290  3.07775313
   6.66632231  4.76829318  6.66632231
   9.30842358  9.30842358  9.30842358
   9.31616819  9.31616819  2.21224414
   9.30720144  9.30720144  5.76135753
   9.31616819  2.21224414  9.31616819
   9.32636665  2.21625050  2.21625050
   9.32857635  2.20430203  5.76706567
   9.30720144  5.76135753  9.30720144
   9.32857635  5.76706567  2.20430203
   9.31043027  5.75959278  5.75959278
   2.21224414  9.31616819  9.31616819
   2.21625050  9.32636665  2.21625050
   2.20430203  9.32857635  5.76706567
   2.21625050  2.21625050  9.32636665
   2.22925572  2.22925572  2.22925572
   2.22574660  2.22574660  5.77897675
   2.20430203  5.76706567  9.32857635
   2.22574660  5.77897675  2.22574660
   2.21135440  5.77345879  5.77345879
   5.76135753  9.30720144  9.30720144
   5.76706567  9.32857635  2.20430203
   5.75959278  9.31043027  5.75959278
   5.76706567  2.20430203  9.32857635
   5.77897675  2.22574660  2.22574660
   5.77345879  2.21135440  5.77345879
   5.75959278  5.75959278  9.31043027
   5.77345879  5.77345879  2.21135440
  10.19747215 10.19747215  8.42743713
  10.20496681 10.20496681  1.32940383
  10.20184720 10.20184720  4.87754314
  10.20410805  3.10052450  8.43327747
  10.21239632  3.10640467  1.33377781
  10.21082005  3.10332332  4.88076795
  10.19028399  6.64987254  8.42192333
  10.20601748  6.65630808  1.32220450
  10.20020500  6.65320586  4.87624525
   3.10052450 10.20410805  8.43327747
   3.10640467 10.21239632  1.33377781
   3.10332332 10.21082005  4.88076795
   3.10019122  3.10019122  8.44121408
   3.11720951  3.11720951  1.34957496
   3.13809972  3.13809972  4.90688605
   3.08083742  6.65818047  8.45025339
   3.10494178  6.66278978  1.32833590
   3.07775313  6.69481485  4.87798290
   6.64987254 10.19028399  8.42192333
   6.65630808 10.20601748  1.32220450
   6.65320586 10.20020500  4.87624525
   6.65818047  3.08083742  8.45025339
   6.66278978  3.10494178  1.32833590
   6.69481485  3.07775313  4.87798290
   6.63328413  6.63328413  8.40369440
   6.65710824  6.65710824  1.32185983
   6.66632231  6.66632231  4.76829318
 


--------------------------------------------------------------------------------------------------------


 use parallel FFT for orbitals z direction half grid
 k-point  1 :   0.0000 0.0000 0.0000  plane waves:   10988

 maximum and minimum number of plane-waves per node :       696      679

 maximum number of plane-waves:     10988
 maximum index in each direction: 
   IXMAX=   17   IYMAX=   17   IZMAX=   17
   IXMIN=  -17   IYMIN=  -17   IZMIN=    0


 real space projection operators:
  total allocation   :      40841.81 KBytes
  max/ min on nodes  :       2947.69       2323.25


 parallel 3D FFT for wavefunctions:
    minimum data exchange during FFTs selected (reduces bandwidth)
 parallel 3D FFT for charge:
    minimum data exchange during FFTs selected (reduces bandwidth)


 FFT grid for exact exchange (Hartree Fock) 
  NGX = 36; NGY = 36; NGZ = 36

 use parallel FFT for orbitals z direction half grid
 
 Radii for the augmentation spheres in the non-local exchange
 for species   1 augmentation radius   1.055 (default was   0.989)
       energy cutoff for augmentation   1600.0
 for species   2 augmentation radius   0.795 (default was   0.699)
       energy cutoff for augmentation   1600.0

 real space projection operators:
  total allocation   :       1318.99 KBytes
  max/ min on nodes  :        110.88         68.91

 Maximum index for augmentation-charges in exchange            25
  SETUP_FOCK is finished

 total amount of memory used by VASP MPI-rank0    39717. kBytes
=======================================================================

   base      :      30000. kBytes
   nonlr-proj:       3654. kBytes
   fftplans  :       1350. kBytes
   grid      :       3557. kBytes
   one-center:         43. kBytes
   HF        :          9. kBytes
   wavefun   :       1104. kBytes
 
     INWAV:  cpu time    1.8058: real time    1.8103
 Broyden mixing: mesh for mixing (old mesh)
   NGX = 35   NGY = 35   NGZ = 35
  (NGX  =140   NGY  =140   NGZ  =140)
  gives a total of  42875 points

 initial charge density was supplied:
 charge density of overlapping atoms calculated
 number of electron     860.0000000 magnetization     129.0000000
 charge density for first step will be calculated from the start-wavefunctions


--------------------------------------------------------------------------------------------------------


 Maximum index for non-local projection operator           455
 Maximum index for augmentation-charges           164 (set IRDMAX)


--------------------------------------------------------------------------------------------------------


 initial charge from wavefunction
 First call to EWALD:  gamma=   0.166
 Maximum number of real-space cells 3x 3x 3
 Maximum number of reciprocal cells 3x 3x 3

    FEWALD:  cpu time    0.0117: real time    0.0117

 ----------------------------------------------------------------------------- 
|                                                                             |
|           W    W    AA    RRRRR   N    N  II  N    N   GGGG   !!!           |
|           W    W   A  A   R    R  NN   N  II  NN   N  G    G  !!!           |
|           W    W  A    A  R    R  N N  N  II  N N  N  G       !!!           |
|           W WW W  AAAAAA  RRRRR   N  N N  II  N  N N  G  GGG   !            |
|           WW  WW  A    A  R   R   N   NN  II  N   NN  G    G                |
|           W    W  A    A  R    R  N    N  II  N    N   GGGG   !!!           |
|                                                                             |
|      ALGO=A and IALGO=5X tend to fail with the tetrahedron method           |
|      (e.g. Bloechls method ISMEAR=-5 is not variational)                    |
|      please switch to IMSEAR=0-n, except for DOS calculations               |
|      For DOS calculations use IALGO=53 after preconverging with ISMEAR>=0   |
|          I HOPE YOU KNOW, WHAT YOU ARE  DOING                               |
|                                                                             |
 ----------------------------------------------------------------------------- 



--------------------------------------- Iteration      1(   1)  ---------------------------------------


    POTLOK:  cpu time    0.1582: real time    0.1583
    SETDIJ:  cpu time    0.0475: real time    0.0475
    TRIAL :  cpu time    8.6324: real time    8.6336
    CORREC:  cpu time    8.8308: real time    8.8318
    CHARGE:  cpu time    0.0239: real time    0.0239
    --------------------------------------------
      LOOP:  cpu time   17.6961: real time   17.7017

 eigenvalue-minimisations  :     0
 total energy-change (2. order) :-0.2409060E+04  (-0.2306937E+00)
 number of electron     859.9999991 magnetization       1.9999999
 augmentation part       19.9528542 magnetization       0.1377375

 Free energy of the ion-electron system (eV)
  ---------------------------------------------------
  alpha Z        PSCENC =      3112.96981489
  Ewald energy   TEWEN  =    -37449.00313757
  -Hartree energ DENC   =     -2882.25740303
  -exchange      EXHF   =      1983.83432652
  -V(xc)+E(xc)   XCENC  =      2425.43130436
  PAW double counting   =     14907.25565942   -15090.26594608
  entropy T*S    EENTRO =         0.00000000
  eigenvalues    EBANDS =      -474.18313519
  atomic energy  EATOM  =     31057.15824686
  ---------------------------------------------------
  free energy    TOTEN  =     -2409.06026981 eV

  energy without entropy =    -2409.06026981  energy(sigma->0) =    -2409.06026981
  exchange ACFDT corr.  =        -0.06224579  see jH, gK, PRB 81, 115126


--------------------------------------------------------------------------------------------------------




--------------------------------------- Iteration      1(   2)  ---------------------------------------


    POTLOK:  cpu time    0.1316: real time    0.1316
    SETDIJ:  cpu time    0.0426: real time    0.0426
    TRIAL :  cpu time    8.6633: real time    8.6645
    CORREC:  cpu time    8.8412: real time    8.8425
    CHARGE:  cpu time    0.0226: real time    0.0226
    --------------------------------------------
      LOOP:  cpu time   17.7276: real time   17.7302

 eigenvalue-minimisations  :     0
 total energy-change (2. order) :-0.2306848E+00  (-0.3819373E-01)
 number of electron     859.9999991 magnetization       1.9999999
 augmentation part       19.9509988 magnetization       0.1364931

 Free energy of the ion-electron system (eV)
  ---------------------------------------------------
  alpha Z        PSCENC =      3112.96981489
  Ewald energy   TEWEN  =    -37449.00313757
  -Hartree energ DENC   =     -2883.16217413
  -exchange      EXHF   =      1983.79813611
  -V(xc)+E(xc)   XCENC  =      2425.40426801
  PAW double counting   =     14906.26472107   -15089.27178898
  entropy T*S    EENTRO =         0.00000000
  eigenvalues    EBANDS =      -473.44904086
  atomic energy  EATOM  =     31057.15824686
  ---------------------------------------------------
  free energy    TOTEN  =     -2409.29095460 eV

  energy without entropy =    -2409.29095460  energy(sigma->0) =    -2409.29095460
  exchange ACFDT corr.  =        -0.06213627  see jH, gK, PRB 81, 115126


--------------------------------------------------------------------------------------------------------




--------------------------------------- Iteration      1(   3)  ---------------------------------------


    POTLOK:  cpu time    0.1267: real time    0.1267
    SETDIJ:  cpu time    0.0423: real time    0.0423
    TRIAL :  cpu time    8.6267: real time    8.6283
    CORREC:  cpu time    8.7424: real time    8.7433
    CHARGE:  cpu time    0.0236: real time    0.0236
    --------------------------------------------
      LOOP:  cpu time   17.5929: real time   17.5954

 eigenvalue-minimisations  :     0
 total energy-change (2. order) :-0.3795274E-01  (-0.1057264E-01)
 number of electron     859.9999991 magnetization       1.9999999
 augmentation part       19.9507637 magnetization       0.1354083

 Free energy of the ion-electron system (eV)
  ---------------------------------------------------
  alpha Z        PSCENC =      3112.96981489
  Ewald energy   TEWEN  =    -37449.00313757
  -Hartree energ DENC   =     -2882.69080813
  -exchange      EXHF   =      1983.79140322
  -V(xc)+E(xc)   XCENC  =      2425.39414828
  PAW double counting   =     14905.99725608   -15089.00474851
  entropy T*S    EENTRO =         0.00000000
  eigenvalues    EBANDS =      -473.94108247
  atomic energy  EATOM  =     31057.15824686
  ---------------------------------------------------
  free energy    TOTEN  =     -2409.32890735 eV

  energy without entropy =    -2409.32890735  energy(sigma->0) =    -2409.32890735
  exchange ACFDT corr.  =        -0.05498023  see jH, gK, PRB 81, 115126


--------------------------------------------------------------------------------------------------------




--------------------------------------- Iteration      1(   4)  ---------------------------------------


    POTLOK:  cpu time    0.1262: real time    0.1262
    SETDIJ:  cpu time    0.0428: real time    0.0428
    TRIAL :  cpu time    8.7438: real time    8.7447
    CORREC:  cpu time    8.7635: real time    8.7644
    CHARGE:  cpu time    0.0245: real time    0.0245
    --------------------------------------------
      LOOP:  cpu time   17.7270: real time   17.7289

 eigenvalue-minimisations  :     0
 total energy-change (2. order) :-0.1059085E-01  (-0.3031426E-02)
 number of electron     859.9999991 magnetization       1.9999999
 augmentation part       19.9510905 magnetization       0.1345892

 Free energy of the ion-electron system (eV)
  ---------------------------------------------------
  alpha Z        PSCENC =      3112.96981489
  Ewald energy   TEWEN  =    -37449.00313757
  -Hartree energ DENC   =     -2882.96939942
  -exchange      EXHF   =      1983.80091962
  -V(xc)+E(xc)   XCENC  =      2425.39950424
  PAW double counting   =     14906.16571078   -15089.17403133
  entropy T*S    EENTRO =         0.00000000
  eigenvalues    EBANDS =      -473.68712628
  atomic energy  EATOM  =     31057.15824686
  ---------------------------------------------------
  free energy    TOTEN  =     -2409.33949819 eV

  energy without entropy =    -2409.33949819  energy(sigma->0) =    -2409.33949819
  exchange ACFDT corr.  =        -0.05517369  see jH, gK, PRB 81, 115126


--------------------------------------------------------------------------------------------------------




--------------------------------------- Iteration      1(   5)  ---------------------------------------


    POTLOK:  cpu time    0.1270: real time    0.1270
    SETDIJ:  cpu time    0.0432: real time    0.0432
    TRIAL :  cpu time    8.6361: real time    8.6370
    CORREC:  cpu time    8.7044: real time    8.7054
    CHARGE:  cpu time    0.0225: real time    0.0225
    --------------------------------------------
      LOOP:  cpu time   17.5644: real time   17.5662

 eigenvalue-minimisations  :     0
 total energy-change (2. order) :-0.3073713E-02  (-0.9696996E-03)
 number of electron     859.9999991 magnetization       1.9999999
 augmentation part       19.9512316 magnetization       0.1340503

 Free energy of the ion-electron system (eV)
  ---------------------------------------------------
  alpha Z        PSCENC =      3112.96981489
  Ewald energy   TEWEN  =    -37449.00313757
  -Hartree energ DENC   =     -2882.92846209
  -exchange      EXHF   =      1983.80724175
  -V(xc)+E(xc)   XCENC  =      2425.40374739
  PAW double counting   =     14906.27773604   -15089.28618835
  entropy T*S    EENTRO =         0.00000000
  eigenvalues    EBANDS =      -473.74157083
  atomic energy  EATOM  =     31057.15824686
  ---------------------------------------------------
  free energy    TOTEN  =     -2409.34257191 eV

  energy without entropy =    -2409.34257191  energy(sigma->0) =    -2409.34257191
  exchange ACFDT corr.  =        -0.05530892  see jH, gK, PRB 81, 115126


--------------------------------------------------------------------------------------------------------




--------------------------------------- Iteration      1(   6)  ---------------------------------------


    POTLOK:  cpu time    0.1262: real time    0.1262
    SETDIJ:  cpu time    0.0428: real time    0.0428
    TRIAL :  cpu time    8.6379: real time    8.6390
    CORREC:  cpu time    8.7176: real time    8.7185
    CHARGE:  cpu time    0.0263: real time    0.0263
    --------------------------------------------
      LOOP:  cpu time   17.5769: real time   17.5789

 eigenvalue-minimisations  :     0
 total energy-change (2. order) :-0.1002648E-02  (-0.3184179E-03)
 number of electron     859.9999991 magnetization       1.9999999
 augmentation part       19.9512749 magnetization       0.1338196

 Free energy of the ion-electron system (eV)
  ---------------------------------------------------
  alpha Z        PSCENC =      3112.96981489
  Ewald energy   TEWEN  =    -37449.00313757
  -Hartree energ DENC   =     -2882.99649963
  -exchange      EXHF   =      1983.80695822
  -V(xc)+E(xc)   XCENC  =      2425.40361313
  PAW double counting   =     14906.26236181   -15089.27054463
  entropy T*S    EENTRO =         0.00000000
  eigenvalues    EBANDS =      -473.67438764
  atomic energy  EATOM  =     31057.15824686
  ---------------------------------------------------
  free energy    TOTEN  =     -2409.34357456 eV

  energy without entropy =    -2409.34357456  energy(sigma->0) =    -2409.34357456
  exchange ACFDT corr.  =        -0.05538632  see jH, gK, PRB 81, 115126


--------------------------------------------------------------------------------------------------------




--------------------------------------- Iteration      1(   7)  ---------------------------------------


    POTLOK:  cpu time    0.1461: real time    0.1461
    SETDIJ:  cpu time    0.0421: real time    0.0421
    TRIAL :  cpu time    8.6242: real time    8.6251
    CORREC:  cpu time    8.8158: real time    8.8167
    CHARGE:  cpu time    0.0235: real time    0.0235
    --------------------------------------------
      LOOP:  cpu time   17.6828: real time   17.6846

 eigenvalue-minimisations  :     0
 total energy-change (2. order) :-0.3372610E-03  (-0.1124599E-03)
 number of electron     859.9999991 magnetization       1.9999999
 augmentation part       19.9513361 magnetization       0.1337652

 Free energy of the ion-electron system (eV)
  ---------------------------------------------------
  alpha Z        PSCENC =      3112.96981489
  Ewald energy   TEWEN  =    -37449.00313757
  -Hartree energ DENC   =     -2882.95931716
  -exchange      EXHF   =      1983.80643000
  -V(xc)+E(xc)   XCENC  =      2425.40319388
  PAW double counting   =     14906.25271753   -15089.26089081
  entropy T*S    EENTRO =         0.00000000
  eigenvalues    EBANDS =      -473.71096944
  atomic energy  EATOM  =     31057.15824686
  ---------------------------------------------------
  free energy    TOTEN  =     -2409.34391182 eV

  energy without entropy =    -2409.34391182  energy(sigma->0) =    -2409.34391182
  exchange ACFDT corr.  =        -0.05543970  see jH, gK, PRB 81, 115126


--------------------------------------------------------------------------------------------------------




--------------------------------------- Iteration      1(   8)  ---------------------------------------


    POTLOK:  cpu time    0.1290: real time    0.1290
    SETDIJ:  cpu time    0.0428: real time    0.0428
    TRIAL :  cpu time    8.7472: real time    8.7481
    CORREC:  cpu time    8.8111: real time    8.8129
    CHARGE:  cpu time    0.0224: real time    0.0224
    --------------------------------------------
      LOOP:  cpu time   17.7791: real time   17.7819

 eigenvalue-minimisations  :     0
 total energy-change (2. order) :-0.1227827E-03  (-0.4230495E-04)
 number of electron     859.9999991 magnetization       1.9999999
 augmentation part       19.9513748 magnetization       0.1337606

 Free energy of the ion-electron system (eV)
  ---------------------------------------------------
  alpha Z        PSCENC =      3112.96981489
  Ewald energy   TEWEN  =    -37449.00313757
  -Hartree energ DENC   =     -2882.97040322
  -exchange      EXHF   =      1983.80709552
  -V(xc)+E(xc)   XCENC  =      2425.40364568
  PAW double counting   =     14906.27127243   -15089.27959903
  entropy T*S    EENTRO =         0.00000000
  eigenvalues    EBANDS =      -473.70097018
  atomic energy  EATOM  =     31057.15824686
  ---------------------------------------------------
  free energy    TOTEN  =     -2409.34403460 eV

  energy without entropy =    -2409.34403460  energy(sigma->0) =    -2409.34403460
  exchange ACFDT corr.  =        -0.05547592  see jH, gK, PRB 81, 115126


--------------------------------------------------------------------------------------------------------




--------------------------------------- Iteration      1(   9)  ---------------------------------------


    POTLOK:  cpu time    0.1276: real time    0.1276
    SETDIJ:  cpu time    0.0431: real time    0.0431
    TRIAL :  cpu time    8.7566: real time    8.7581
    CORREC:  cpu time    8.8093: real time    8.8103
    CHARGE:  cpu time    0.0251: real time    0.0251
    --------------------------------------------
      LOOP:  cpu time   17.7929: real time   17.7954

 eigenvalue-minimisations  :     0
 total energy-change (2. order) :-0.4668479E-04  (-0.2557262E-04)
 number of electron     859.9999991 magnetization       1.9999999
 augmentation part       19.9513760 magnetization       0.1337687

 Free energy of the ion-electron system (eV)
  ---------------------------------------------------
  alpha Z        PSCENC =      3112.96981489
  Ewald energy   TEWEN  =    -37449.00313757
  -Hartree energ DENC   =     -2882.97710372
  -exchange      EXHF   =      1983.80753235
  -V(xc)+E(xc)   XCENC  =      2425.40385793
  PAW double counting   =     14906.27912704   -15089.28752518
  entropy T*S    EENTRO =         0.00000000
  eigenvalues    EBANDS =      -473.69489389
  atomic energy  EATOM  =     31057.15824686
  ---------------------------------------------------
  free energy    TOTEN  =     -2409.34408128 eV

  energy without entropy =    -2409.34408128  energy(sigma->0) =    -2409.34408128
  exchange ACFDT corr.  =        -0.05549965  see jH, gK, PRB 81, 115126


--------------------------------------------------------------------------------------------------------




--------------------------------------- Iteration      1(  10)  ---------------------------------------


    POTLOK:  cpu time    0.1286: real time    0.1286
    SETDIJ:  cpu time    0.0493: real time    0.0493
    TRIAL :  cpu time    8.7138: real time    8.7149
    CORREC:  cpu time    8.8031: real time    8.8040
    CHARGE:  cpu time    0.0223: real time    0.0223
    --------------------------------------------
      LOOP:  cpu time   17.7434: real time   17.7454

 eigenvalue-minimisations  :     0
 total energy-change (2. order) :-0.2567278E-04  (-0.1959816E-04)
 number of electron     859.9999991 magnetization       1.9999999
 augmentation part       19.9513814 magnetization       0.1337818

 Free energy of the ion-electron system (eV)
  ---------------------------------------------------
  alpha Z        PSCENC =      3112.96981489
  Ewald energy   TEWEN  =    -37449.00313757
  -Hartree energ DENC   =     -2882.96296904
  -exchange      EXHF   =      1983.80754356
  -V(xc)+E(xc)   XCENC  =      2425.40369916
  PAW double counting   =     14906.27243386   -15089.28077878
  entropy T*S    EENTRO =         0.00000000
  eigenvalues    EBANDS =      -473.70895990
  atomic energy  EATOM  =     31057.15824686
  ---------------------------------------------------
  free energy    TOTEN  =     -2409.34410696 eV

  energy without entropy =    -2409.34410696  energy(sigma->0) =    -2409.34410696
  exchange ACFDT corr.  =        -0.05552743  see jH, gK, PRB 81, 115126


--------------------------------------------------------------------------------------------------------




--------------------------------------- Iteration      1(  11)  ---------------------------------------


    POTLOK:  cpu time    0.1286: real time    0.1286
    SETDIJ:  cpu time    0.0424: real time    0.0424
    TRIAL :  cpu time    8.6949: real time    8.6958
    CORREC:  cpu time    8.7976: real time    8.7985
    CHARGE:  cpu time    0.0259: real time    0.0259
    --------------------------------------------
      LOOP:  cpu time   17.7197: real time   17.7215

 eigenvalue-minimisations  :     0
 total energy-change (2. order) :-0.2018778E-04  (-0.1332669E-04)
 number of electron     859.9999991 magnetization       1.9999999
 augmentation part       19.9513863 magnetization       0.1337871

 Free energy of the ion-electron system (eV)
  ---------------------------------------------------
  alpha Z        PSCENC =      3112.96981489
  Ewald energy   TEWEN  =    -37449.00313757
  -Hartree energ DENC   =     -2882.96806459
  -exchange      EXHF   =      1983.80777159
  -V(xc)+E(xc)   XCENC  =      2425.40375578
  PAW double counting   =     14906.27345631   -15089.28178820
  entropy T*S    EENTRO =         0.00000000
  eigenvalues    EBANDS =      -473.70418222
  atomic energy  EATOM  =     31057.15824686
  ---------------------------------------------------
  free energy    TOTEN  =     -2409.34412714 eV

  energy without entropy =    -2409.34412714  energy(sigma->0) =    -2409.34412714
  exchange ACFDT corr.  =        -0.05553803  see jH, gK, PRB 81, 115126


--------------------------------------------------------------------------------------------------------




--------------------------------------- Iteration      1(  12)  ---------------------------------------


    POTLOK:  cpu time    0.1272: real time    0.1273
    SETDIJ:  cpu time    0.0419: real time    0.0419
    TRIAL :  cpu time    8.6997: real time    8.7006
    CORREC:  cpu time    8.7474: real time    8.7483
    CHARGE:  cpu time    0.0221: real time    0.0221
    --------------------------------------------
      LOOP:  cpu time   17.6651: real time   17.6670

 eigenvalue-minimisations  :     0
 total energy-change (2. order) :-0.1328616E-04  (-0.1142609E-04)
 number of electron     859.9999991 magnetization       1.9999999
 augmentation part       19.9513918 magnetization       0.1337914

 Free energy of the ion-electron system (eV)
  ---------------------------------------------------
  alpha Z        PSCENC =      3112.96981489
  Ewald energy   TEWEN  =    -37449.00313757
  -Hartree energ DENC   =     -2882.97705702
  -exchange      EXHF   =      1983.80803799
  -V(xc)+E(xc)   XCENC  =      2425.40395983
  PAW double counting   =     14906.28134966   -15089.28973210
  entropy T*S    EENTRO =         0.00000000
  eigenvalues    EBANDS =      -473.69562297
  atomic energy  EATOM  =     31057.15824686
  ---------------------------------------------------
  free energy    TOTEN  =     -2409.34414043 eV

  energy without entropy =    -2409.34414043  energy(sigma->0) =    -2409.34414043
  exchange ACFDT corr.  =        -0.05554975  see jH, gK, PRB 81, 115126


--------------------------------------------------------------------------------------------------------




--------------------------------------- Iteration      1(  13)  ---------------------------------------


    POTLOK:  cpu time    0.1263: real time    0.1263
    SETDIJ:  cpu time    0.0431: real time    0.0431
    TRIAL :  cpu time    8.6193: real time    8.6202
    CORREC:  cpu time    8.6777: real time    8.6786
    CHARGE:  cpu time    0.0229: real time    0.0229
    --------------------------------------------
      LOOP:  cpu time   17.5202: real time   17.5220

 eigenvalue-minimisations  :     0
 total energy-change (2. order) :-0.1258131E-04  (-0.8086927E-05)
 number of electron     859.9999991 magnetization       1.9999999
 augmentation part       19.9513917 magnetization       0.1337836

 Free energy of the ion-electron system (eV)
  ---------------------------------------------------
  alpha Z        PSCENC =      3112.96981489
  Ewald energy   TEWEN  =    -37449.00313757
  -Hartree energ DENC   =     -2882.97530202
  -exchange      EXHF   =      1983.80819586
  -V(xc)+E(xc)   XCENC  =      2425.40404196
  PAW double counting   =     14906.28481645   -15089.29322838
  entropy T*S    EENTRO =         0.00000000
  eigenvalues    EBANDS =      -473.69760107
  atomic energy  EATOM  =     31057.15824686
  ---------------------------------------------------
  free energy    TOTEN  =     -2409.34415301 eV

  energy without entropy =    -2409.34415301  energy(sigma->0) =    -2409.34415301
  exchange ACFDT corr.  =        -0.05555800  see jH, gK, PRB 81, 115126


--------------------------------------------------------------------------------------------------------




--------------------------------------- Iteration      1(  14)  ---------------------------------------


    POTLOK:  cpu time    0.1253: real time    0.1253
    SETDIJ:  cpu time    0.0430: real time    0.0430
    TRIAL :  cpu time    8.6198: real time    8.6208
    CORREC:  cpu time    8.6560: real time    8.6571
    CHARGE:  cpu time    0.0228: real time    0.0228
    --------------------------------------------
      LOOP:  cpu time   17.4937: real time   17.4958

 eigenvalue-minimisations  :     0
 total energy-change (2. order) :-0.8123852E-05  (-0.6820983E-05)
 number of electron     859.9999991 magnetization       1.9999999
 augmentation part       19.9513944 magnetization       0.1337830

 Free energy of the ion-electron system (eV)
  ---------------------------------------------------
  alpha Z        PSCENC =      3112.96981489
  Ewald energy   TEWEN  =    -37449.00313757
  -Hartree energ DENC   =     -2882.97122580
  -exchange      EXHF   =      1983.80800498
  -V(xc)+E(xc)   XCENC  =      2425.40385886
  PAW double counting   =     14906.27766897   -15089.28603371
  entropy T*S    EENTRO =         0.00000000
  eigenvalues    EBANDS =      -473.70135862
  atomic energy  EATOM  =     31057.15824686
  ---------------------------------------------------
  free energy    TOTEN  =     -2409.34416114 eV

  energy without entropy =    -2409.34416114  energy(sigma->0) =    -2409.34416114
  exchange ACFDT corr.  =        -0.05556456  see jH, gK, PRB 81, 115126


--------------------------------------------------------------------------------------------------------


  average scaling for gradient   1.0424


 average (electrostatic) potential at core
  the test charge radii are     0.9892  0.6991
  (the norm of the test charge is              1.0000)
       1 -74.7204       2 -41.6215       3 -41.6083       4 -41.6010       5 -41.5665
       6 -41.5964       7 -41.5756       8 -41.6039       9 -41.6567      10 -41.5884
      11 -41.5888      12 -41.5979      13 -41.5466      14 -41.5712      15 -41.5726
      16 -40.2446      17 -41.5149      18 -41.7117      19 -41.4675      20 -41.6239
      21 -41.5846      22 -41.5930      23 -41.6785      24 -41.3740      25 -41.6448
      26 -41.6007      27 -41.5277      28 -41.4379      29 -41.5795      30 -41.5733
      31 -41.5102      32 -41.6396      33 -41.6052      34 -41.5826      35 -41.7871
      36 -41.4881      37 -41.5345      38 -41.5720      39 -41.6443      40 -41.6326
      41 -41.6056      42 -41.6180      43 -41.5710      44 -41.4827      45 -41.6495
      46 -41.5509      47 -41.4955      48 -41.6528      49 -41.5343      50 -41.5971
      51 -41.5732      52 -41.5075      53 -41.5514      54 -41.5565      55 -41.6388
      56 -41.6127      57 -41.5975      58 -41.6068      59 -41.5923      60 -41.6035
      61 -41.6058      62 -41.5987      63 -41.5676      64 -41.6196      65 -41.6186
      66 -41.5310      67 -41.6003      68 -41.4382      69 -41.4931      70 -41.6049
      71 -41.4083      72 -41.2342      73 -41.5995      74 -41.5425      75 -41.5687
      76 -41.6018      77 -41.4753      78 -41.6619      79 -41.5764      80 -41.2195
[...]
    4ORBIT:  cpu time    0.0000: real time    0.0000
 


 total charge     
 
# of ion       s       p       d       tot
------------------------------------------
    1        0.691   0.979   0.000   1.671
    2        0.841   1.763   0.000   2.603
    3        0.841   1.765   0.000   2.606
    4        0.841   1.763   0.000   2.604
    5        0.842   1.770   0.000   2.611
    6        0.840   1.763   0.000   2.603
    7        0.840   1.762   0.000   2.602
    8        0.840   1.762   0.000   2.602
    9        0.841   1.761   0.000   2.602
   10        0.840   1.763   0.000   2.603
   11        0.842   1.767   0.000   2.609
   12        0.840   1.760   0.000   2.600
   13        0.840   1.762   0.000   2.602
   14        0.841   1.762   0.000   2.603
   15        0.840   1.753   0.000   2.593
   16        0.847   1.775   0.000   2.623
   17        0.841   1.765   0.000   2.606
   18        0.844   1.762   0.000   2.606
   19        0.845   1.760   0.000   2.605
   20        0.840   1.762   0.000   2.602
   21        0.841   1.764   0.000   2.605
   22        0.840   1.762   0.000   2.602
   23        0.841   1.763   0.000   2.604
   24        0.844   1.778   0.000   2.622
   25        0.845   1.766   0.000   2.611
   26        0.839   1.756   0.000   2.595
   27        0.841   1.762   0.000   2.603
   28        0.838   1.740   0.000   2.577
   29        0.840   1.763   0.000   2.603
   30        0.841   1.766   0.000   2.607
   31        0.840   1.751   0.000   2.592
   32        0.841   1.764   0.000   2.605
   33        0.841   1.763   0.000   2.604
   34        0.842   1.766   0.000   2.608
   35        0.841   1.742   0.000   2.584
   36        0.842   1.772   0.000   2.614
   37        0.840   1.755   0.000   2.594
   38        0.841   1.766   0.000   2.607
   39        0.841   1.763   0.000   2.604
   40        0.842   1.766   0.000   2.608
   41        0.841   1.763   0.000   2.604
   42        0.840   1.760   0.000   2.601
   43        0.840   1.760   0.000   2.600
   44        0.842   1.772   0.000   2.614
   45        0.840   1.760   0.000   2.600
   46        0.841   1.765   0.000   2.605
   47        0.840   1.752   0.000   2.592
   48        0.842   1.765   0.000   2.607
   49        0.839   1.754   0.000   2.593
   50        0.842   1.765   0.000   2.607
   51        0.840   1.760   0.000   2.600
   52        0.841   1.764   0.000   2.605
   53        0.840   1.754   0.000   2.594
   54        0.841   1.765   0.000   2.605
   55        0.841   1.761   0.000   2.602
   56        0.842   1.766   0.000   2.608
   57        0.840   1.762   0.000   2.603
   58        0.841   1.765   0.000   2.606
   59        0.840   1.762   0.000   2.602
   60        0.841   1.764   0.000   2.605
   61        0.841   1.765   0.000   2.606
   62        0.840   1.762   0.000   2.602
   63        0.840   1.763   0.000   2.604
   64        0.841   1.766   0.000   2.608
   65        0.841   1.759   0.000   2.599
   66        0.841   1.764   0.000   2.605
   67        0.840   1.761   0.000   2.602
   68        0.839   1.754   0.000   2.593
   69        0.844   1.769   0.000   2.613
   70        0.840   1.762   0.000   2.602
   71        0.855   1.732   0.000   2.587
   72        0.845   1.778   0.000   2.623
   73        0.840   1.762   0.000   2.603
   74        0.841   1.764   0.000   2.605
   75        0.839   1.754   0.000   2.593
   76        0.841   1.764   0.000   2.605
   77        0.844   1.770   0.000   2.614
   78        0.840   1.762   0.000   2.602
   79        0.840   1.763   0.000   2.603
   80        0.845   1.780   0.000   2.625
   81        0.839   1.741   0.000   2.580
   82        0.841   1.765   0.000   2.606
   83        0.841   1.763   0.000   2.604
   84        0.840   1.760   0.000   2.601
   85        0.841   1.761   0.000   2.602
   86        0.841   1.762   0.000   2.603
   87        0.844   1.763   0.000   2.607
   88        0.840   1.762   0.000   2.603
   89        0.844   1.779   0.000   2.623
   90        0.840   1.753   0.000   2.593
   91        0.840   1.763   0.000   2.603
   92        0.840   1.761   0.000   2.602
   93        0.842   1.767   0.000   2.609
   94        0.840   1.762   0.000   2.602
   95        0.839   1.756   0.000   2.596
   96        0.841   1.765   0.000   2.606
   97        0.842   1.770   0.000   2.611
   98        0.841   1.764   0.000   2.605
   99        0.841   1.763   0.000   2.604
  100        0.841   1.762   0.000   2.604
  101        0.840   1.762   0.000   2.602
  102        0.840   1.762   0.000   2.602
  103        0.840   1.763   0.000   2.603
  104        0.837   1.739   0.000   2.577
  105        0.845   1.759   0.000   2.604
  106        0.840   1.762   0.000   2.602
  107        0.845   1.763   0.000   2.608
  108        0.847   1.773   0.000   2.620
  109        0.840   1.763   0.000   2.603
  110        0.842   1.767   0.000   2.609
  111        0.840   1.761   0.000   2.602
  112        0.842   1.770   0.000   2.611
  113        0.841   1.763   0.000   2.604
  114        0.841   1.764   0.000   2.605
  115        0.840   1.762   0.000   2.602
  116        0.841   1.765   0.000   2.606
  117        0.839   1.756   0.000   2.596
  118        0.841   1.765   0.000   2.606
  119        0.840   1.760   0.000   2.601
  120        0.841   1.763   0.000   2.604
  121        0.840   1.762   0.000   2.603
  122        0.840   1.753   0.000   2.593
  123        0.844   1.779   0.000   2.623
  124        0.841   1.761   0.000   2.602
  125        0.844   1.763   0.000   2.607
  126        0.841   1.762   0.000   2.603
  127        0.841   1.762   0.000   2.604
  128        0.840   1.762   0.000   2.602
  129        0.840   1.762   0.000   2.602
  130        0.840   1.762   0.000   2.602
  131        0.847   1.773   0.000   2.620
  132        0.845   1.763   0.000   2.608
  133        0.840   1.763   0.000   2.603
  134        0.844   1.759   0.000   2.604
  135        0.837   1.740   0.000   2.577
  136        0.841   1.765   0.000   2.606
  137        0.841   1.764   0.000   2.605
  138        0.840   1.762   0.000   2.602
  139        0.841   1.761   0.000   2.602
  140        0.840   1.762   0.000   2.603
  141        0.842   1.766   0.000   2.608
  142        0.841   1.765   0.000   2.606
  143        0.840   1.763   0.000   2.604
  144        0.840   1.762   0.000   2.602
  145        0.841   1.764   0.000   2.605
  146        0.840   1.762   0.000   2.602
  147        0.844   1.770   0.000   2.614
  148        0.840   1.762   0.000   2.603
  149        0.839   1.754   0.000   2.593
  150        0.841   1.764   0.000   2.605
  151        0.840   1.763   0.000   2.603
  152        0.839   1.741   0.000   2.580
  153        0.845   1.780   0.000   2.624
  154        0.840   1.761   0.000   2.602
  155        0.844   1.769   0.000   2.613
  156        0.839   1.754   0.000   2.593
  157        0.841   1.766   0.000   2.608
  158        0.841   1.764   0.000   2.605
  159        0.841   1.759   0.000   2.599
  160        0.840   1.762   0.000   2.602
  161        0.845   1.778   0.000   2.623
  162        0.855   1.732   0.000   2.587
  163        0.840   1.760   0.000   2.601
  164        0.841   1.763   0.000   2.604
  165        0.840   1.760   0.000   2.600
  166        0.841   1.763   0.000   2.604
  167        0.841   1.766   0.000   2.607
  168        0.842   1.766   0.000   2.608
  169        0.840   1.760   0.000   2.600
  170        0.842   1.772   0.000   2.614
  171        0.841   1.765   0.000   2.605
  172        0.841   1.763   0.000   2.604
  173        0.841   1.764   0.000   2.605
  174        0.842   1.766   0.000   2.608
  175        0.841   1.766   0.000   2.607
  176        0.840   1.763   0.000   2.603
  177        0.840   1.751   0.000   2.592
  178        0.842   1.772   0.000   2.614
  179        0.841   1.742   0.000   2.583
  180        0.840   1.754   0.000   2.594
  181        0.840   1.760   0.000   2.600
  182        0.842   1.765   0.000   2.607
  183        0.841   1.764   0.000   2.605
  184        0.842   1.765   0.000   2.607
  185        0.840   1.752   0.000   2.592
  186        0.839   1.753   0.000   2.592
  187        0.841   1.765   0.000   2.605
  188        0.840   1.754   0.000   2.594
  189        0.841   1.765   0.000   2.606
  190        0.841   1.763   0.000   2.603
  191        0.841   1.763   0.000   2.604
  192        0.841   1.761   0.000   2.602
  193        0.840   1.762   0.000   2.602
  194        0.840   1.763   0.000   2.603
  195        0.840   1.763   0.000   2.603
  196        0.842   1.770   0.000   2.612
  197        0.840   1.762   0.000   2.602
  198        0.841   1.764   0.000   2.605
  199        0.840   1.762   0.000   2.602
  200        0.840   1.762   0.000   2.602
  201        0.841   1.762   0.000   2.603
  202        0.839   1.756   0.000   2.595
  203        0.838   1.740   0.000   2.577
  204        0.844   1.778   0.000   2.622
  205        0.841   1.763   0.000   2.604
  206        0.845   1.766   0.000   2.611
  207        0.840   1.760   0.000   2.600
  208        0.842   1.767   0.000   2.609
  209        0.840   1.762   0.000   2.602
  210        0.844   1.762   0.000   2.606
  211        0.841   1.765   0.000   2.606
  212        0.845   1.761   0.000   2.605
  213        0.840   1.753   0.000   2.593
  214        0.841   1.762   0.000   2.603
  215        0.848   1.775   0.000   2.623
--------------------------------------------------
tot        180.713 378.074   0.000 558.787
 


 magnetization (x)
 
# of ion       s       p       d       tot
------------------------------------------
    1       -0.015   0.063   0.000   0.048
    2        0.000   0.001   0.000   0.001
    3        0.000   0.001   0.000   0.001
    4        0.000   0.003   0.000   0.003
    5        0.000   0.001   0.000   0.001
    6       -0.000   0.000   0.000   0.000
    7        0.000   0.002   0.000   0.002
    8        0.000   0.001   0.000   0.001
    9        0.000   0.006   0.000   0.007
   10       -0.000   0.000   0.000   0.000
   11        0.000   0.002   0.000   0.002
   12        0.000   0.002   0.000   0.002
   13        0.000   0.000   0.000   0.000
   14        0.000   0.002   0.000   0.002
   15        0.000   0.007   0.000   0.008
   16        0.005   0.051   0.000   0.055
   17       -0.000   0.000   0.000  -0.000
   18        0.002   0.023   0.000   0.026
   19        0.001   0.019   0.000   0.019
   20       -0.000   0.001   0.000   0.001
   21        0.000   0.002   0.000   0.002
   22       -0.000   0.001   0.000   0.001
   23       -0.000   0.001   0.000   0.001
   24        0.001   0.005   0.000   0.006
   25       -0.000   0.011   0.000   0.010
   26       -0.000   0.000   0.000  -0.000
   27       -0.000   0.000   0.000   0.000
   28       -0.001   0.002   0.000   0.001
   29        0.000   0.001   0.000   0.001
   30        0.000   0.001   0.000   0.001
   31        0.001   0.008   0.000   0.008
   32        0.000   0.003   0.000   0.003
   33        0.000   0.002   0.000   0.002
   34        0.000   0.006   0.000   0.006
   35        0.002   0.025   0.000   0.027
   36        0.000   0.001   0.000   0.001
   37        0.000   0.004   0.000   0.004
   38        0.000   0.001   0.000   0.001
   39       -0.000   0.001   0.000   0.001
   40        0.000   0.006   0.000   0.006
   41        0.000   0.001   0.000   0.001
   42        0.000   0.002   0.000   0.002
   43       -0.000   0.000   0.000   0.000
   44        0.000   0.000   0.000   0.000
   45        0.000   0.001   0.000   0.001
   46       -0.000   0.000   0.000   0.000
   47        0.001   0.006   0.000   0.007
   48        0.001   0.007   0.000   0.008
   49       -0.000   0.001   0.000   0.001
   50        0.000   0.006   0.000   0.007
   51       -0.000   0.001   0.000   0.001
   52        0.000   0.001   0.000   0.001
   53        0.000   0.004   0.000   0.004
   54       -0.000   0.001   0.000   0.000
   55        0.000   0.003   0.000   0.003
   56        0.000   0.004   0.000   0.004
   57       -0.000   0.000   0.000   0.000
   58       -0.000   0.001   0.000   0.001
   59        0.000   0.001   0.000   0.001
   60        0.000   0.002   0.000   0.002
   61        0.000   0.003   0.000   0.003
   62        0.000   0.002   0.000   0.002
   63       -0.000   0.000   0.000   0.000
   64        0.000   0.004   0.000   0.004
   65        0.000   0.005   0.000   0.005
   66       -0.000   0.000   0.000   0.000
   67        0.000   0.002   0.000   0.002
   68        0.000   0.001   0.000   0.001
   69        0.001   0.008   0.000   0.009
   70        0.000   0.002   0.000   0.002
   71        0.017   0.198   0.000   0.215
   72       -0.000   0.002   0.000   0.002
   73       -0.000   0.000   0.000   0.000
   74       -0.000   0.001   0.000   0.001
   75       -0.000   0.001   0.000   0.001
   76        0.000   0.002   0.000   0.002
   77        0.001   0.008   0.000   0.008
   78       -0.000  -0.001   0.000  -0.001
   79       -0.000   0.000   0.000   0.000
   80       -0.000   0.000   0.000  -0.000
   81       -0.001   0.003   0.000   0.001
   82        0.000   0.001   0.000   0.001
   83        0.000   0.003   0.000   0.003
   84        0.000   0.002   0.000   0.002
   85        0.000   0.007   0.000   0.007
   86       -0.000   0.000   0.000   0.000
   87        0.002   0.022   0.000   0.024
   88       -0.000   0.001   0.000   0.001
   89        0.001   0.005   0.000   0.005
   90        0.000   0.008   0.000   0.009
   91        0.000   0.001   0.000   0.001
   92       -0.000   0.001   0.000   0.001
   93        0.000   0.002   0.000   0.002
   94        0.000   0.001   0.000   0.001
   95       -0.000  -0.000   0.000  -0.000
   96       -0.000   0.000   0.000   0.000
   97        0.000   0.001   0.000   0.001
   98       -0.000   0.001   0.000   0.001
   99       -0.000   0.001   0.000   0.001
  100        0.000   0.003   0.000   0.003
  101       -0.000   0.001   0.000   0.001
  102       -0.000   0.000   0.000   0.000
  103       -0.000   0.001   0.000   0.001
  104       -0.001   0.000   0.000  -0.000
  105        0.001   0.020   0.000   0.021
  106        0.000   0.001   0.000   0.002
  107        0.000   0.014   0.000   0.014
  108        0.006   0.054   0.000   0.059
  109        0.000   0.001   0.000   0.001
  110        0.000   0.002   0.000   0.002
  111       -0.000   0.001   0.000   0.001
  112        0.000   0.001   0.000   0.001
  113       -0.000   0.001   0.000   0.001
  114       -0.000   0.001   0.000   0.001
  115        0.000   0.001   0.000   0.001
  116       -0.000   0.000   0.000   0.000
  117       -0.000  -0.000   0.000  -0.000
  118        0.000   0.001   0.000   0.001
  119        0.000   0.002   0.000   0.002
  120        0.000   0.003   0.000   0.003
  121       -0.000   0.001   0.000   0.001
  122        0.000   0.008   0.000   0.009
  123        0.001   0.004   0.000   0.005
  124        0.000   0.007   0.000   0.007
  125        0.002   0.022   0.000   0.024
  126       -0.000   0.000   0.000   0.000
  127        0.000   0.003   0.000   0.004
  128       -0.000   0.000   0.000   0.000
  129       -0.000   0.001   0.000   0.001
  130        0.000   0.001   0.000   0.002
  131        0.006   0.054   0.000   0.060
  132        0.000   0.014   0.000   0.014
  133       -0.000   0.001   0.000   0.001
  134        0.001   0.020   0.000   0.022
  135       -0.001   0.000   0.000  -0.000
  136       -0.000   0.001   0.000   0.001
  137        0.000   0.002   0.000   0.002
  138        0.000   0.001   0.000   0.001
  139        0.000   0.003   0.000   0.003
  140       -0.000   0.000   0.000   0.000
  141        0.000   0.003   0.000   0.004
  142        0.000   0.003   0.000   0.003
  143       -0.000   0.000   0.000   0.000
  144        0.000   0.002   0.000   0.002
  145        0.000   0.002   0.000   0.002
  146       -0.000  -0.001   0.000  -0.001
  147        0.001   0.008   0.000   0.009
  148       -0.000   0.000   0.000   0.000
  149       -0.000   0.001   0.000   0.001
  150       -0.000   0.001   0.000   0.001
  151       -0.000   0.000   0.000   0.000
  152       -0.002   0.003   0.000   0.001
  153       -0.000   0.001   0.000   0.000
  154        0.000   0.002   0.000   0.002
  155        0.001   0.009   0.000   0.009
  156        0.000   0.001   0.000   0.001
  157        0.000   0.004   0.000   0.004
  158       -0.000   0.000   0.000   0.000
  159        0.000   0.005   0.000   0.005
  160        0.000   0.002   0.000   0.002
  161       -0.000   0.002   0.000   0.002
  162        0.017   0.198   0.000   0.216
  163        0.000   0.002   0.000   0.002
  164        0.000   0.001   0.000   0.001
  165       -0.000   0.001   0.000   0.000
  166       -0.000   0.001   0.000   0.001
  167        0.000   0.001   0.000   0.001
  168        0.000   0.006   0.000   0.006
  169        0.000   0.001   0.000   0.002
  170        0.000   0.000   0.000   0.000
  171       -0.000   0.000   0.000   0.000
  172        0.000   0.002   0.000   0.002
  173        0.000   0.003   0.000   0.003
  174        0.000   0.006   0.000   0.006
  175        0.000   0.001   0.000   0.001
  176        0.000   0.001   0.000   0.001
  177        0.001   0.008   0.000   0.008
  178        0.000   0.001   0.000   0.001
  179        0.002   0.025   0.000   0.027
  180        0.000   0.004   0.000   0.004
  181       -0.000   0.001   0.000   0.001
  182        0.000   0.006   0.000   0.007
  183        0.000   0.001   0.000   0.001
  184        0.001   0.007   0.000   0.008
  185        0.001   0.006   0.000   0.007
  186       -0.000   0.001   0.000   0.001
  187       -0.000   0.001   0.000   0.000
  188       -0.000   0.004   0.000   0.004
  189        0.000   0.001   0.000   0.001
  190        0.000   0.001   0.000   0.001
  191        0.000   0.003   0.000   0.003
  192        0.000   0.006   0.000   0.007
  193        0.000   0.001   0.000   0.001
  194       -0.000   0.000   0.000   0.000
  195       -0.000   0.000   0.000   0.000
  196        0.000   0.001   0.000   0.001
  197        0.000   0.002   0.000   0.002
  198        0.000   0.002   0.000   0.002
  199       -0.000   0.001   0.000   0.001
  200       -0.000   0.001   0.000   0.001
  201       -0.000   0.000   0.000   0.000
  202       -0.000   0.000   0.000  -0.000
  203       -0.001   0.002   0.000   0.001
  204        0.001   0.005   0.000   0.006
  205       -0.000   0.001   0.000   0.001
  206       -0.000   0.011   0.000   0.010
  207        0.000   0.002   0.000   0.002
  208        0.000   0.002   0.000   0.002
  209        0.000   0.000   0.000   0.000
  210        0.002   0.023   0.000   0.026
  211       -0.000   0.000   0.000  -0.000
  212        0.001   0.018   0.000   0.019
  213        0.000   0.007   0.000   0.007
  214       -0.000   0.002   0.000   0.002
  215        0.005   0.051   0.000   0.056
--------------------------------------------------
tot          0.068   1.334   0.000   1.402
 

 total amount of memory used by VASP MPI-rank0    39717. kBytes
=======================================================================

   base      :      30000. kBytes
   nonlr-proj:       3654. kBytes
   fftplans  :       1350. kBytes
   grid      :       3557. kBytes
   one-center:         43. kBytes
   HF        :          9. kBytes
   wavefun   :       1104. kBytes
 
  
  
 General timing and accounting informations for this job:
 ========================================================
  
                  Total CPU time used (sec):     2961.444
                            User time (sec):     2921.200
                          System time (sec):       40.244
                         Elapsed time (sec):     2962.973
  
                   Maximum memory used (kb):      403704.
                   Average memory used (kb):           0.
  
                          Minor page faults:       327913
                          Major page faults:          359
                 Voluntary context switches:          822
