 running on  512 total cores
 distrk:  each k-point on  512 cores,    1 groups
 distr:  one band on   16 cores,   32 groups
 using from now: INCAR     
 vasp.5.4.4.18Apr17-6-g9f103f2a35 (build Jun 14 2024 12:30:39) gamma-only        
 POSCAR found type information on POSCAR  Si C 
 POSCAR found :  2 types and     215 ions
 scaLAPACK will be used
 LDA part: xc-table for Pade appr. of Perdew

 ----------------------------------------------------------------------------- 
|                                                                             |
|           W    W    AA    RRRRR   N    N  II  N    N   GGGG   !!!           |
|           W    W   A  A   R    R  NN   N  II  NN   N  G    G  !!!           |
|           W    W  A    A  R    R  N N  N  II  N N  N  G       !!!           |
|           W WW W  AAAAAA  RRRRR   N  N N  II  N  N N  G  GGG   !            |
|           WW  WW  A    A  R   R   N   NN  II  N   NN  G    G                |
|           W    W  A    A  R    R  N    N  II  N    N   GGGG   !!!           |
|                                                                             |
|      The number of bands has been changed from the values supplied          |
|      in the INCAR file. This is a result of running the parallel version.   |
|      The orbitals not found in the WAVECAR file will be initialized with    |
|      random numbers, which is usually adequate. For correlated              |
|      calculations, however, you should redo the groundstate calculation.    |
|      I found NBANDS    =      450  now  NBANDS  =     480                   |
|                                                                             |
 ----------------------------------------------------------------------------- 

 found WAVECAR, reading the header
  number of bands has changed, file:   464 present:   480
  trying to continue reading WAVECAR, but it might fail
 POSCAR, INCAR and KPOINTS ok, starting setup
 FFT: planning ...
 reading WAVECAR
 random initialization beyond band           465
 the WAVECAR file was read successfully
 initial charge from wavefunction
 entering main loop

 ----------------------------------------------------------------------------- 
|                                                                             |
|           W    W    AA    RRRRR   N    N  II  N    N   GGGG   !!!           |
|           W    W   A  A   R    R  NN   N  II  NN   N  G    G  !!!           |
|           W    W  A    A  R    R  N N  N  II  N N  N  G       !!!           |
|           W WW W  AAAAAA  RRRRR   N  N N  II  N  N N  G  GGG   !            |
|           WW  WW  A    A  R   R   N   NN  II  N   NN  G    G                |
|           W    W  A    A  R    R  N    N  II  N    N   GGGG   !!!           |
|                                                                             |
|      ALGO=A and IALGO=5X tend to fail with the tetrahedron method           |
|      (e.g. Bloechls method ISMEAR=-5 is not variational)                    |
|      please switch to IMSEAR=0-n, except for DOS calculations               |
|      For DOS calculations use IALGO=53 after preconverging with ISMEAR>=0   |
|          I HOPE YOU KNOW, WHAT YOU ARE  DOING                               |
|                                                                             |
 ----------------------------------------------------------------------------- 

       N       E                     dE             d eps       ncg     rms          ort
 gam= 0.000 g(H,U,f)=  0.855E+00 0.000E+00 0.000E+00 ort(H,U,f) = 0.000E+00 0.000E+00 0.000E+00
SDA:   1    -0.240906026981E+04   -0.24091E+04    0.00000E+00   480   0.855E+00 0.000E+00
 gam= 0.000 trial= 0.400  step= 0.540 mean= 0.400
 gam= 0.098 g(H,U,f)=  0.837E-01 0.000E+00 0.000E+00 ort(H,U,f) =-0.223E-02 0.000E+00 0.000E+00
CGA:   2    -0.240929095460E+04   -0.23068E+00   -0.23069E+00   480   0.837E-01-0.223E-02
 gam= 0.098 trial= 0.407  step= 0.915 mean= 0.407
 gam= 0.280 g(H,U,f)=  0.234E-01 0.000E+00 0.000E+00 ort(H,U,f) =-0.666E-03 0.000E+00 0.000E+00
CGA:   3    -0.240932890735E+04   -0.37953E-01   -0.38194E-01   480   0.234E-01-0.666E-03
 gam= 0.280 trial= 0.432  step= 0.910 mean= 0.432
 gam= 0.266 g(H,U,f)=  0.622E-02 0.000E+00 0.000E+00 ort(H,U,f) = 0.200E-03 0.000E+00 0.000E+00
CGA:   4    -0.240933949819E+04   -0.10591E-01   -0.10573E-01   480   0.622E-02 0.200E-03
 gam= 0.266 trial= 0.456  step= 0.967 mean= 0.456
 gam= 0.332 g(H,U,f)=  0.207E-02 0.000E+00 0.000E+00 ort(H,U,f) = 0.251E-03 0.000E+00 0.000E+00
CGA:   5    -0.240934257191E+04   -0.30737E-02   -0.30314E-02   480   0.207E-02 0.251E-03
 gam= 0.332 trial= 0.482  step= 0.903 mean= 0.482
 gam= 0.325 g(H,U,f)=  0.671E-03 0.000E+00 0.000E+00 ort(H,U,f) = 0.209E-03 0.000E+00 0.000E+00
CGA:   6    -0.240934357456E+04   -0.10026E-02   -0.96970E-03   480   0.671E-03 0.209E-03
 gam= 0.325 trial= 0.503  step= 0.861 mean= 0.503
 gam= 0.332 g(H,U,f)=  0.223E-03 0.000E+00 0.000E+00 ort(H,U,f) = 0.135E-03 0.000E+00 0.000E+00
CGA:   7    -0.240934391182E+04   -0.33726E-03   -0.31842E-03   480   0.223E-03 0.135E-03
 gam= 0.332 trial= 0.521  step= 0.841 mean= 0.521
 gam= 0.366 g(H,U,f)=  0.816E-04 0.000E+00 0.000E+00 ort(H,U,f) = 0.833E-04 0.000E+00 0.000E+00
CGA:   8    -0.240934403460E+04   -0.12278E-03   -0.11246E-03   480   0.816E-04 0.833E-04
 gam= 0.366 trial= 0.537  step= 0.755 mean= 0.537
 gam= 0.000 g(H,U,f)=  0.398E-04 0.000E+00 0.000E+00 ort(H,U,f) = 0.529E-04 0.000E+00 0.000E+00
CGA:   9    -0.240934408128E+04   -0.46685E-04   -0.42305E-04   480   0.398E-04 0.529E-04
 gam= 0.000 trial= 0.548  step= 1.284 mean= 0.548
 gam= 1.253 g(H,U,f)=  0.499E-04 0.000E+00 0.000E+00 ort(H,U,f) = 0.980E-05 0.000E+00 0.000E+00
CGA:  10    -0.240934410696E+04   -0.25673E-04   -0.25573E-04   480   0.499E-04 0.980E-05
 gam= 1.253 trial= 0.584  step= 0.630 mean= 0.584
 gam= 0.000 g(H,U,f)=  0.259E-04 0.000E+00 0.000E+00 ort(H,U,f) = 0.358E-04 0.000E+00 0.000E+00
CGA:  11    -0.240934412714E+04   -0.20188E-04   -0.19598E-04   480   0.259E-04 0.358E-04
 gam= 0.000 trial= 0.587  step= 1.028 mean= 0.587
 gam= 0.899 g(H,U,f)=  0.233E-04 0.000E+00 0.000E+00 ort(H,U,f) = 0.326E-05 0.000E+00 0.000E+00
CGA:  12    -0.240934414043E+04   -0.13286E-04   -0.13327E-04   480   0.233E-04 0.326E-05
 gam= 0.899 trial= 0.609  step= 0.871 mean= 0.609
 gam= 0.000 g(H,U,f)=  0.168E-04 0.000E+00 0.000E+00 ort(H,U,f) = 0.149E-04 0.000E+00 0.000E+00
CGA:  13    -0.240934415301E+04   -0.12581E-04   -0.11426E-04   480   0.168E-04 0.149E-04
 gam= 0.000 trial= 0.622  step= 0.961 mean= 0.622
 gam= 0.665 g(H,U,f)=  0.112E-04 0.000E+00 0.000E+00 ort(H,U,f) = 0.201E-05 0.000E+00 0.000E+00
CGA:  14    -0.240934416114E+04   -0.81239E-05   -0.80869E-05   480   0.112E-04 0.201E-05
 gam= 0.665 trial= 0.639  step= 1.089 mean= 0.639
   1 F= -.24093442E+04 E0= -.24093442E+04  d E =-.240934E+04  mag=     2.0000
 BRION: g(F)=  0.849E+00 g(S)=  0.000E+00
 bond charge predicted
 writing wavefunctions

 ----------------------------------------------------------------------------- 
|                                                                             |
|           W    W    AA    RRRRR   N    N  II  N    N   GGGG   !!!           |
|           W    W   A  A   R    R  NN   N  II  NN   N  G    G  !!!           |
|           W    W  A    A  R    R  N N  N  II  N N  N  G       !!!           |
|           W WW W  AAAAAA  RRRRR   N  N N  II  N  N N  G  GGG   !            |
|           WW  WW  A    A  R   R   N   NN  II  N   NN  G    G                |
|           W    W  A    A  R    R  N    N  II  N    N   GGGG   !!!           |
|                                                                             |
|      ALGO=A and IALGO=5X tend to fail with the tetrahedron method           |
|      (e.g. Bloechls method ISMEAR=-5 is not variational)                    |
|      please switch to IMSEAR=0-n, except for DOS calculations               |
|      For DOS calculations use IALGO=53 after preconverging with ISMEAR>=0   |
|          I HOPE YOU KNOW, WHAT YOU ARE  DOING                               |
|                                                                             |
 ----------------------------------------------------------------------------- 

       N       E                     dE             d eps       ncg     rms          ort
 gam= 0.000 g(H,U,f)=  0.221E+02 0.000E+00 0.000E+00 ort(H,U,f) = 0.000E+00 0.000E+00 0.000E+00
SDA:   1    -0.239810207110E+04    0.11242E+02    0.00000E+00   480   0.221E+02 0.000E+00
 gam= 0.000 trial= 0.661  step= 0.832 mean= 0.661
 gam= 0.192 g(H,U,f)=  0.425E+01 0.000E+00 0.000E+00 ort(H,U,f) =-0.460E-02 0.000E+00 0.000E+00
CGA:   2    -0.240729219700E+04   -0.91901E+01   -0.91911E+01   480   0.425E+01-0.460E-02
 gam= 0.192 trial= 0.670  step= 0.631 mean= 0.670
 gam= 0.088 g(H,U,f)=  0.374E+00 0.000E+00 0.000E+00 ort(H,U,f) = 0.170E-02 0.000E+00 0.000E+00
CGA:   3    -0.240863355535E+04   -0.13414E+01   -0.13414E+01   480   0.374E+00 0.170E-02
 gam= 0.088 trial= 0.668  step= 0.706 mean= 0.668
 gam= 0.197 g(H,U,f)=  0.738E-01 0.000E+00 0.000E+00 ort(H,U,f) = 0.435E-03 0.000E+00 0.000E+00
CGA:   4    -0.240876555252E+04   -0.13200E+00   -0.13199E+00   480   0.738E-01 0.435E-03
 gam= 0.197 trial= 0.670  step= 0.839 mean= 0.670
 gam= 0.310 g(H,U,f)=  0.228E-01 0.000E+00 0.000E+00 ort(H,U,f) = 0.441E-03 0.000E+00 0.000E+00
CGA:   5    -0.240879654459E+04   -0.30992E-01   -0.30975E-01   480   0.228E-01 0.441E-03
 gam= 0.310 trial= 0.678  step= 0.965 mean= 0.678
 gam= 0.268 g(H,U,f)=  0.612E-02 0.000E+00 0.000E+00 ort(H,U,f) = 0.443E-03 0.000E+00 0.000E+00
CGA:   6    -0.240880767066E+04   -0.11126E-01   -0.11086E-01   480   0.612E-02 0.443E-03
 gam= 0.268 trial= 0.693  step= 0.828 mean= 0.693
 gam= 0.219 g(H,U,f)=  0.134E-02 0.000E+00 0.000E+00 ort(H,U,f) = 0.228E-03 0.000E+00 0.000E+00
CGA:   7    -0.240881026288E+04   -0.25922E-02   -0.25814E-02   480   0.134E-02 0.228E-03
 gam= 0.219 trial= 0.699  step= 0.837 mean= 0.699
 gam= 0.284 g(H,U,f)=  0.381E-03 0.000E+00 0.000E+00 ort(H,U,f) = 0.117E-03 0.000E+00 0.000E+00
CGA:   8    -0.240881084879E+04   -0.58591E-03   -0.58133E-03   480   0.381E-03 0.117E-03
 gam= 0.284 trial= 0.706  step= 0.881 mean= 0.706
 gam= 0.372 g(H,U,f)=  0.142E-03 0.000E+00 0.000E+00 ort(H,U,f) = 0.103E-03 0.000E+00 0.000E+00
CGA:   9    -0.240881103600E+04   -0.18722E-03   -0.18248E-03   480   0.142E-03 0.103E-03
 gam= 0.372 trial= 0.715  step= 0.701 mean= 0.715
 gam= 0.000 g(H,U,f)=  0.713E-04 0.000E+00 0.000E+00 ort(H,U,f) = 0.904E-04 0.000E+00 0.000E+00
CGA:  10    -0.240881109869E+04   -0.62693E-04   -0.63056E-04   480   0.713E-04 0.904E-04
 gam= 0.000 trial= 0.714  step= 1.300 mean= 0.714
 gam= 0.000 g(H,U,f)=  0.111E-03 0.000E+00 0.000E+00 ort(H,U,f) = 0.394E-04 0.000E+00 0.000E+00
CGA:  11    -0.240881114503E+04   -0.46336E-04   -0.46351E-04   480   0.111E-03 0.394E-04
 gam= 0.000 trial= 0.744  step= 0.944 mean= 0.744
 gam= 0.928 g(H,U,f)=  0.103E-03 0.000E+00 0.000E+00 ort(H,U,f) = 0.417E-04 0.000E+00 0.000E+00
CGA:  12    -0.240881119716E+04   -0.52129E-04   -0.52171E-04   480   0.103E-03 0.417E-04
 gam= 0.928 trial= 0.754  step= 0.534 mean= 0.754
 gam= 0.000 g(H,U,f)=  0.587E-04 0.000E+00 0.000E+00 ort(H,U,f) = 0.947E-04 0.000E+00 0.000E+00
CGA:  13    -0.240881122888E+04   -0.31724E-04   -0.37756E-04   480   0.587E-04 0.947E-04
 gam= 0.000 trial= 0.743  step= 0.979 mean= 0.743
 gam= 1.562 g(H,U,f)=  0.916E-04 0.000E+00 0.000E+00 ort(H,U,f) = 0.185E-04 0.000E+00 0.000E+00
CGA:  14    -0.240881125756E+04   -0.28681E-04   -0.28700E-04   480   0.916E-04 0.185E-04
 gam= 1.562 trial= 0.754  step= 0.557 mean= 0.754
 gam= 0.000 g(H,U,f)=  0.909E-04 0.000E+00 0.000E+00 ort(H,U,f) = 0.801E-04 0.000E+00 0.000E+00
CGA:  15    -0.240881128692E+04   -0.29362E-04   -0.33581E-04   480   0.909E-04 0.801E-04
 gam= 0.000 trial= 0.745  step= 0.660 mean= 0.745
 gam= 0.610 g(H,U,f)=  0.555E-04 0.000E+00 0.000E+00 ort(H,U,f) = 0.192E-04 0.000E+00 0.000E+00
CGA:  16    -0.240881131691E+04   -0.29986E-04   -0.29981E-04   480   0.555E-04 0.192E-04
 gam= 0.610 trial= 0.740  step= 0.662 mean= 0.740
 gam= 0.000 g(H,U,f)=  0.575E-04 0.000E+00 0.000E+00 ort(H,U,f) = 0.529E-04 0.000E+00 0.000E+00
CGA:  17    -0.240881133831E+04   -0.21403E-04   -0.22222E-04   480   0.575E-04 0.529E-04
 gam= 0.000 trial= 0.736  step= 0.956 mean= 0.736
 gam= 1.556 g(H,U,f)=  0.894E-04 0.000E+00 0.000E+00 ort(H,U,f) = 0.224E-04 0.000E+00 0.000E+00
CGA:  18    -0.240881136577E+04   -0.27454E-04   -0.27465E-04   480   0.894E-04 0.224E-04
 gam= 1.556 trial= 0.747  step= 0.498 mean= 0.747
 gam= 0.000 g(H,U,f)=  0.868E-04 0.000E+00 0.000E+00 ort(H,U,f) = 0.844E-04 0.000E+00 0.000E+00
CGA:  19    -0.240881139092E+04   -0.25156E-04   -0.30930E-04   480   0.868E-04 0.844E-04
 gam= 0.000 trial= 0.735  step= 0.711 mean= 0.735
 gam= 0.795 g(H,U,f)=  0.690E-04 0.000E+00 0.000E+00 ort(H,U,f) = 0.196E-04 0.000E+00 0.000E+00
CGA:  20    -0.240881142179E+04   -0.30862E-04   -0.30861E-04   480   0.690E-04 0.196E-04
 gam= 0.795 trial= 0.734  step= 0.649 mean= 0.734
 gam= 0.000 g(H,U,f)=  0.765E-04 0.000E+00 0.000E+00 ort(H,U,f) = 0.633E-04 0.000E+00 0.000E+00
CGA:  21    -0.240881144806E+04   -0.26278E-04   -0.27443E-04   480   0.765E-04 0.633E-04
 gam= 0.000 trial= 0.729  step= 0.836 mean= 0.729
 gam= 1.195 g(H,U,f)=  0.914E-04 0.000E+00 0.000E+00 ort(H,U,f) = 0.188E-04 0.000E+00 0.000E+00
CGA:  22    -0.240881148004E+04   -0.31971E-04   -0.31972E-04   480   0.914E-04 0.188E-04
 gam= 1.195 trial= 0.735  step= 0.594 mean= 0.735
 gam= 0.000 g(H,U,f)=  0.963E-04 0.000E+00 0.000E+00 ort(H,U,f) = 0.719E-04 0.000E+00 0.000E+00
CGA:  23    -0.240881151130E+04   -0.31264E-04   -0.33806E-04   480   0.963E-04 0.719E-04
 gam= 0.000 trial= 0.728  step= 0.723 mean= 0.728
 gam= 0.828 g(H,U,f)=  0.798E-04 0.000E+00 0.000E+00 ort(H,U,f) = 0.146E-04 0.000E+00 0.000E+00
CGA:  24    -0.240881154612E+04   -0.34824E-04   -0.34824E-04   480   0.798E-04 0.146E-04
 gam= 0.828 trial= 0.728  step= 0.692 mean= 0.728
 gam= 0.000 g(H,U,f)=  0.943E-04 0.000E+00 0.000E+00 ort(H,U,f) = 0.535E-04 0.000E+00 0.000E+00
CGA:  25    -0.240881157749E+04   -0.31367E-04   -0.31780E-04   480   0.943E-04 0.535E-04
 gam= 0.000 trial= 0.726  step= 0.658 mean= 0.726
 gam= 0.934 g(H,U,f)=  0.881E-04 0.000E+00 0.000E+00 ort(H,U,f) = 0.983E-05 0.000E+00 0.000E+00
CGA:  26    -0.240881160853E+04   -0.31041E-04   -0.31041E-04   480   0.881E-04 0.983E-05
 gam= 0.934 trial= 0.722  step= 0.654 mean= 0.722
 gam= 1.098 g(H,U,f)=  0.968E-04 0.000E+00 0.000E+00 ort(H,U,f) = 0.410E-04 0.000E+00 0.000E+00
CGA:  27    -0.240881163980E+04   -0.31266E-04   -0.31827E-04   480   0.968E-04 0.410E-04
 gam= 1.098 trial= 0.719  step= 0.532 mean= 0.719
 gam= 0.000 g(H,U,f)=  0.617E-04 0.000E+00 0.000E+00 ort(H,U,f) = 0.821E-04 0.000E+00 0.000E+00
CGA:  28    -0.240881167244E+04   -0.32642E-04   -0.37740E-04   480   0.617E-04 0.821E-04
 gam= 0.000 trial= 0.710  step= 0.535 mean= 0.710
 gam= 0.939 g(H,U,f)=  0.580E-04 0.000E+00 0.000E+00 ort(H,U,f) = 0.733E-06 0.000E+00 0.000E+00
CGA:  29    -0.240881168895E+04   -0.16511E-04   -0.16509E-04   480   0.580E-04 0.733E-06
 gam= 0.939 trial= 0.701  step= 0.897 mean= 0.701
 gam= 1.508 g(H,U,f)=  0.874E-04 0.000E+00 0.000E+00 ort(H,U,f) = 0.147E-04 0.000E+00 0.000E+00
CGA:  30    -0.240881171541E+04   -0.26464E-04   -0.26304E-04   480   0.874E-04 0.147E-04
 gam= 1.508 trial= 0.711  step= 0.582 mean= 0.711
 gam= 0.000 g(H,U,f)=  0.854E-04 0.000E+00 0.000E+00 ort(H,U,f) = 0.530E-04 0.000E+00 0.000E+00
CGA:  31    -0.240881174513E+04   -0.29722E-04   -0.31892E-04   480   0.854E-04 0.530E-04
 gam= 0.000 trial= 0.704  step= 0.470 mean= 0.704
 gam= 0.554 g(H,U,f)=  0.473E-04 0.000E+00 0.000E+00 ort(H,U,f) = 0.121E-05 0.000E+00 0.000E+00
CGA:  32    -0.240881176517E+04   -0.20039E-04   -0.20040E-04   480   0.473E-04 0.121E-05
 gam= 0.554 trial= 0.693  step= 0.587 mean= 0.693
 gam= 0.675 g(H,U,f)=  0.319E-04 0.000E+00 0.000E+00 ort(H,U,f) = 0.648E-05 0.000E+00 0.000E+00
CGA:  33    -0.240881177919E+04   -0.14012E-04   -0.14070E-04   480   0.319E-04 0.648E-05
 gam= 0.675 trial= 0.687  step= 0.835 mean= 0.687
 gam= 0.000 g(H,U,f)=  0.439E-04 0.000E+00 0.000E+00 ort(H,U,f) = 0.191E-04 0.000E+00 0.000E+00
CGA:  34    -0.240881179505E+04   -0.15864E-04   -0.15141E-04   480   0.439E-04 0.191E-04
 gam= 0.000 trial= 0.695  step= 0.510 mean= 0.695
 gam= 0.730 g(H,U,f)=  0.320E-04 0.000E+00 0.000E+00 ort(H,U,f) = 0.610E-06 0.000E+00 0.000E+00
CGA:  35    -0.240881180624E+04   -0.11192E-04   -0.11187E-04   480   0.320E-04 0.610E-06
 gam= 0.730 trial= 0.685  step= 0.968 mean= 0.685
 gam= 1.235 g(H,U,f)=  0.396E-04 0.000E+00 0.000E+00 ort(H,U,f) = 0.785E-05 0.000E+00 0.000E+00
CGA:  36    -0.240881182213E+04   -0.15891E-04   -0.15718E-04   480   0.396E-04 0.785E-05
 gam= 1.235 trial= 0.700  step= 0.627 mean= 0.700
 gam= 0.000 g(H,U,f)=  0.335E-04 0.000E+00 0.000E+00 ort(H,U,f) = 0.233E-04 0.000E+00 0.000E+00
CGA:  37    -0.240881183700E+04   -0.14870E-04   -0.15436E-04   480   0.335E-04 0.233E-04
 gam= 0.000 trial= 0.696  step= 0.630 mean= 0.696
 gam= 0.683 g(H,U,f)=  0.229E-04 0.000E+00 0.000E+00 ort(H,U,f) = 0.311E-06 0.000E+00 0.000E+00
CGA:  38    -0.240881184755E+04   -0.10545E-04   -0.10545E-04   480   0.229E-04 0.311E-06
 gam= 0.683 trial= 0.693  step= 0.749 mean= 0.693
 gam= 1.004 g(H,U,f)=  0.230E-04 0.000E+00 0.000E+00 ort(H,U,f) = 0.400E-05 0.000E+00 0.000E+00
CGA:  39    -0.240881185621E+04   -0.86613E-05   -0.86489E-05   480   0.230E-04 0.400E-05
 gam= 1.004 trial= 0.695  step= 0.803 mean= 0.695
 gam= 0.000 g(H,U,f)=  0.252E-04 0.000E+00 0.000E+00 ort(H,U,f) = 0.154E-04 0.000E+00 0.000E+00
CGA:  40    -0.240881186751E+04   -0.11304E-04   -0.10838E-04   480   0.252E-04 0.154E-04
 gam= 0.000 trial= 0.701  step= 0.649 mean= 0.701
 gam= 0.771 g(H,U,f)=  0.194E-04 0.000E+00 0.000E+00 ort(H,U,f) = 0.108E-05 0.000E+00 0.000E+00
CGA:  41    -0.240881187570E+04   -0.81852E-05   -0.81836E-05   480   0.194E-04 0.108E-05
 gam= 0.771 trial= 0.698  step= 0.768 mean= 0.698
   2 F= -.24088119E+04 E0= -.24088119E+04  d E =0.532285E+00  mag=     2.0000
 BRION: g(F)=  0.581E+01 g(S)=  0.000E+00 retain N=  1 mean eig= 0.27
 eig:   0.267
 bond charge predicted
 writing wavefunctions

 ----------------------------------------------------------------------------- 
|                                                                             |
|           W    W    AA    RRRRR   N    N  II  N    N   GGGG   !!!           |
|           W    W   A  A   R    R  NN   N  II  NN   N  G    G  !!!           |
|           W    W  A    A  R    R  N N  N  II  N N  N  G       !!!           |
|           W WW W  AAAAAA  RRRRR   N  N N  II  N  N N  G  GGG   !            |
|           WW  WW  A    A  R   R   N   NN  II  N   NN  G    G                |
|           W    W  A    A  R    R  N    N  II  N    N   GGGG   !!!           |
|                                                                             |
|      ALGO=A and IALGO=5X tend to fail with the tetrahedron method           |
|      (e.g. Bloechls method ISMEAR=-5 is not variational)                    |
|      please switch to IMSEAR=0-n, except for DOS calculations               |
|      For DOS calculations use IALGO=53 after preconverging with ISMEAR>=0   |
|          I HOPE YOU KNOW, WHAT YOU ARE  DOING                               |
|                                                                             |
 ----------------------------------------------------------------------------- 

       N       E                     dE             d eps       ncg     rms          ort
 gam= 0.000 g(H,U,f)=  0.124E+02 0.000E+00 0.000E+00 ort(H,U,f) = 0.000E+00 0.000E+00 0.000E+00
SDA:   1    -0.240357002618E+04    0.52418E+01    0.00000E+00   480   0.124E+02 0.000E+00
 gam= 0.000 trial= 0.702  step= 0.826 mean= 0.702
 gam= 0.156 g(H,U,f)=  0.193E+01 0.000E+00 0.000E+00 ort(H,U,f) =-0.535E-04 0.000E+00 0.000E+00
CGA:   2    -0.240869070466E+04   -0.51207E+01   -0.51207E+01   480   0.193E+01-0.535E-04
 gam= 0.156 trial= 0.708  step= 0.686 mean= 0.708
 gam= 0.079 g(H,U,f)=  0.153E+00 0.000E+00 0.000E+00 ort(H,U,f) = 0.725E-03 0.000E+00 0.000E+00
CGA:   3    -0.240935348727E+04   -0.66278E+00   -0.66279E+00   480   0.153E+00 0.725E-03
 gam= 0.079 trial= 0.707  step= 0.755 mean= 0.707
 gam= 0.185 g(H,U,f)=  0.283E-01 0.000E+00 0.000E+00 ort(H,U,f) = 0.540E-04 0.000E+00 0.000E+00
CGA:   4    -0.240941118251E+04   -0.57695E-01   -0.57694E-01   480   0.283E-01 0.540E-04
 gam= 0.185 trial= 0.709  step= 0.914 mean= 0.709
 gam= 0.369 g(H,U,f)=  0.105E-01 0.000E+00 0.000E+00 ort(H,U,f) = 0.392E-04 0.000E+00 0.000E+00
CGA:   5    -0.240942413252E+04   -0.12950E-01   -0.12947E-01   480   0.105E-01 0.392E-04
 gam= 0.369 trial= 0.720  step= 0.973 mean= 0.720
 gam= 0.292 g(H,U,f)=  0.305E-02 0.000E+00 0.000E+00 ort(H,U,f) = 0.393E-04 0.000E+00 0.000E+00
CGA:   6    -0.240942923162E+04   -0.50991E-02   -0.50959E-02   480   0.305E-02 0.393E-04
 gam= 0.292 trial= 0.732  step= 0.827 mean= 0.732
 gam= 0.205 g(H,U,f)=  0.625E-03 0.000E+00 0.000E+00 ort(H,U,f) = 0.268E-04 0.000E+00 0.000E+00
CGA:   7    -0.240943049811E+04   -0.12665E-02   -0.12659E-02   480   0.625E-03 0.268E-04
 gam= 0.205 trial= 0.737  step= 0.846 mean= 0.737
 gam= 0.305 g(H,U,f)=  0.190E-03 0.000E+00 0.000E+00 ort(H,U,f) = 0.197E-04 0.000E+00 0.000E+00
CGA:   8    -0.240943076502E+04   -0.26691E-03   -0.26653E-03   480   0.190E-03 0.197E-04
 gam= 0.305 trial= 0.742  step= 0.927 mean= 0.742
 gam= 0.397 g(H,U,f)=  0.755E-04 0.000E+00 0.000E+00 ort(H,U,f) = 0.263E-04 0.000E+00 0.000E+00
CGA:   9    -0.240943085712E+04   -0.92093E-04   -0.91032E-04   480   0.755E-04 0.263E-04
 gam= 0.397 trial= 0.752  step= 0.846 mean= 0.752
 gam= 0.425 g(H,U,f)=  0.321E-04 0.000E+00 0.000E+00 ort(H,U,f) = 0.312E-04 0.000E+00 0.000E+00
CGA:  10    -0.240943089432E+04   -0.37206E-04   -0.36375E-04   480   0.321E-04 0.312E-04
 gam= 0.425 trial= 0.756  step= 0.679 mean= 0.756
 gam= 0.000 g(H,U,f)=  0.196E-04 0.000E+00 0.000E+00 ort(H,U,f) = 0.265E-04 0.000E+00 0.000E+00
CGA:  11    -0.240943090907E+04   -0.14744E-04   -0.15381E-04   480   0.196E-04 0.265E-04
 gam= 0.000 trial= 0.752  step= 1.529 mean= 0.752
 gam= 0.000 g(H,U,f)=  0.384E-04 0.000E+00 0.000E+00 ort(H,U,f) = 0.109E-04 0.000E+00 0.000E+00
CGA:  12    -0.240943092412E+04   -0.15056E-04   -0.14990E-04   480   0.384E-04 0.109E-04
 gam= 0.000 trial= 0.791  step= 0.956 mean= 0.791
 gam= 1.005 g(H,U,f)=  0.386E-04 0.000E+00 0.000E+00 ort(H,U,f) = 0.952E-05 0.000E+00 0.000E+00
CGA:  13    -0.240943094248E+04   -0.18358E-04   -0.18357E-04   480   0.386E-04 0.952E-05
 gam= 1.005 trial= 0.800  step= 0.768 mean= 0.800
 gam= 0.000 g(H,U,f)=  0.245E-04 0.000E+00 0.000E+00 ort(H,U,f) = 0.317E-04 0.000E+00 0.000E+00
CGA:  14    -0.240943096068E+04   -0.18204E-04   -0.18492E-04   480   0.245E-04 0.317E-04
 gam= 0.000 trial= 0.798  step= 0.961 mean= 0.798
 gam= 1.205 g(H,U,f)=  0.296E-04 0.000E+00 0.000E+00 ort(H,U,f) = 0.370E-05 0.000E+00 0.000E+00
CGA:  15    -0.240943097248E+04   -0.11795E-04   -0.11798E-04   480   0.296E-04 0.370E-05
 gam= 1.205 trial= 0.806  step= 1.024 mean= 0.806
 gam= 0.000 g(H,U,f)=  0.359E-04 0.000E+00 0.000E+00 ort(H,U,f) = 0.228E-04 0.000E+00 0.000E+00
CGA:  16    -0.240943099112E+04   -0.18640E-04   -0.17417E-04   480   0.359E-04 0.228E-04
 gam= 0.000 trial= 0.817  step= 0.748 mean= 0.817
 gam= 0.515 g(H,U,f)=  0.185E-04 0.000E+00 0.000E+00 ort(H,U,f) = 0.397E-05 0.000E+00 0.000E+00
CGA:  17    -0.240943100455E+04   -0.13426E-04   -0.13428E-04   480   0.185E-04 0.397E-05
 gam= 0.515 trial= 0.814  step= 1.190 mean= 0.814
 gam= 0.000 g(H,U,f)=  0.192E-04 0.000E+00 0.000E+00 ort(H,U,f) = 0.127E-04 0.000E+00 0.000E+00
CGA:  18    -0.240943101786E+04   -0.13317E-04   -0.12226E-04   480   0.192E-04 0.127E-04
 gam= 0.000 trial= 0.832  step= 1.149 mean= 0.832
 gam= 1.012 g(H,U,f)=  0.195E-04 0.000E+00 0.000E+00 ort(H,U,f) = 0.159E-05 0.000E+00 0.000E+00
CGA:  19    -0.240943102891E+04   -0.11051E-04   -0.11052E-04   480   0.195E-04 0.159E-05
 gam= 1.012 trial= 0.848  step= 1.360 mean= 0.848
 gam= 1.433 g(H,U,f)=  0.279E-04 0.000E+00 0.000E+00 ort(H,U,f) = 0.879E-05 0.000E+00 0.000E+00
CGA:  20    -0.240943104455E+04   -0.15634E-04   -0.14339E-04   480   0.279E-04 0.879E-05
 gam= 1.433 trial= 0.874  step= 0.622 mean= 0.874
 gam= 0.416 g(H,U,f)=  0.116E-04 0.000E+00 0.000E+00 ort(H,U,f) = 0.549E-05 0.000E+00 0.000E+00
CGA:  21    -0.240943105579E+04   -0.11245E-04   -0.12611E-04   480   0.116E-04 0.549E-05
 gam= 0.416 trial= 0.861  step= 0.729 mean= 0.861
 gam= 0.659 g(H,U,f)=  0.767E-05 0.000E+00 0.000E+00 ort(H,U,f) =-0.942E-06 0.000E+00 0.000E+00
CGA:  22    -0.240943106075E+04   -0.49621E-05   -0.50706E-05   480   0.767E-05-0.942E-06
 gam= 0.659 trial= 0.855  step= 1.377 mean= 0.855
   3 F= -.24094311E+04 E0= -.24094311E+04  d E =-.619185E+00  mag=     2.0000
 BRION: g(F)=  0.278E+00 g(S)=  0.000E+00 retain N=  1 mean eig= 0.23
 eig:   0.232
 bond charge predicted
 writing wavefunctions

 ----------------------------------------------------------------------------- 
|                                                                             |
|           W    W    AA    RRRRR   N    N  II  N    N   GGGG   !!!           |
|           W    W   A  A   R    R  NN   N  II  NN   N  G    G  !!!           |
|           W    W  A    A  R    R  N N  N  II  N N  N  G       !!!           |
|           W WW W  AAAAAA  RRRRR   N  N N  II  N  N N  G  GGG   !            |
|           WW  WW  A    A  R   R   N   NN  II  N   NN  G    G                |
|           W    W  A    A  R    R  N    N  II  N    N   GGGG   !!!           |
|                                                                             |
|      ALGO=A and IALGO=5X tend to fail with the tetrahedron method           |
|      (e.g. Bloechls method ISMEAR=-5 is not variational)                    |
|      please switch to IMSEAR=0-n, except for DOS calculations               |
|      For DOS calculations use IALGO=53 after preconverging with ISMEAR>=0   |
|          I HOPE YOU KNOW, WHAT YOU ARE  DOING                               |
|                                                                             |
 ----------------------------------------------------------------------------- 

       N       E                     dE             d eps       ncg     rms          ort
 gam= 0.000 g(H,U,f)=  0.449E+01 0.000E+00 0.000E+00 ort(H,U,f) = 0.000E+00 0.000E+00 0.000E+00
SDA:   1    -0.240733270089E+04    0.20984E+01    0.00000E+00   480   0.449E+01 0.000E+00
 gam= 0.000 trial= 0.881  step= 0.773 mean= 0.881
 gam= 0.192 g(H,U,f)=  0.861E+00 0.000E+00 0.000E+00 ort(H,U,f) = 0.219E-03 0.000E+00 0.000E+00
CGA:   2    -0.240907011113E+04   -0.17374E+01   -0.17374E+01   480   0.861E+00 0.219E-03
 gam= 0.192 trial= 0.875  step= 0.665 mean= 0.875
 gam= 0.082 g(H,U,f)=  0.702E-01 0.000E+00 0.000E+00 ort(H,U,f) = 0.267E-05 0.000E+00 0.000E+00
CGA:   3    -0.240935620447E+04   -0.28609E+00   -0.28609E+00   480   0.702E-01 0.267E-05
 gam= 0.082 trial= 0.865  step= 0.703 mean= 0.865
 gam= 0.160 g(H,U,f)=  0.112E-01 0.000E+00 0.000E+00 ort(H,U,f) =-0.918E-05 0.000E+00 0.000E+00
CGA:   4    -0.240938088978E+04   -0.24685E-01   -0.24686E-01   480   0.112E-01-0.918E-05
 gam= 0.160 trial= 0.857  step= 0.886 mean= 0.857
 gam= 0.305 g(H,U,f)=  0.343E-02 0.000E+00 0.000E+00 ort(H,U,f) = 0.250E-05 0.000E+00 0.000E+00
CGA:   5    -0.240938586893E+04   -0.49791E-02   -0.49791E-02   480   0.343E-02 0.250E-05
 gam= 0.305 trial= 0.858  step= 0.953 mean= 0.858
 gam= 0.297 g(H,U,f)=  0.102E-02 0.000E+00 0.000E+00 ort(H,U,f) = 0.271E-05 0.000E+00 0.000E+00
CGA:   6    -0.240938750315E+04   -0.16342E-02   -0.16341E-02   480   0.102E-02 0.271E-05
 gam= 0.297 trial= 0.863  step= 0.818 mean= 0.863
 gam= 0.224 g(H,U,f)=  0.228E-03 0.000E+00 0.000E+00 ort(H,U,f) = 0.165E-05 0.000E+00 0.000E+00
CGA:   7    -0.240938791989E+04   -0.41674E-03   -0.41674E-03   480   0.228E-03 0.165E-05
 gam= 0.224 trial= 0.861  step= 0.871 mean= 0.861
 gam= 0.285 g(H,U,f)=  0.650E-04 0.000E+00 0.000E+00 ort(H,U,f) = 0.236E-05 0.000E+00 0.000E+00
CGA:   8    -0.240938801919E+04   -0.99297E-04   -0.99297E-04   480   0.650E-04 0.236E-05
 gam= 0.285 trial= 0.861  step= 0.953 mean= 0.861
 gam= 0.341 g(H,U,f)=  0.221E-04 0.000E+00 0.000E+00 ort(H,U,f) = 0.386E-05 0.000E+00 0.000E+00
CGA:   9    -0.240938805053E+04   -0.31338E-04   -0.31274E-04   480   0.221E-04 0.386E-05
 gam= 0.341 trial= 0.866  step= 0.893 mean= 0.866
 gam= 0.353 g(H,U,f)=  0.781E-05 0.000E+00 0.000E+00 ort(H,U,f) = 0.416E-05 0.000E+00 0.000E+00
CGA:  10    -0.240938806103E+04   -0.10506E-04   -0.10476E-04   480   0.781E-05 0.416E-05
 gam= 0.353 trial= 0.867  step= 0.817 mean= 0.867
 gam= 0.442 g(H,U,f)=  0.346E-05 0.000E+00 0.000E+00 ort(H,U,f) = 0.339E-05 0.000E+00 0.000E+00
CGA:  11    -0.240938806478E+04   -0.37436E-05   -0.37924E-05   480   0.346E-05 0.339E-05
 gam= 0.442 trial= 0.865  step= 0.666 mean= 0.865
   4 F= -.24093881E+04 E0= -.24093881E+04  d E =0.429960E-01  mag=     2.0000
 BRION: g(F)=  0.666E+00 g(S)=  0.000E+00 retain N=  2 mean eig= 0.17
 eig:   0.175  0.175
 bond charge predicted
 writing wavefunctions

 ----------------------------------------------------------------------------- 
|                                                                             |
|           W    W    AA    RRRRR   N    N  II  N    N   GGGG   !!!           |
|           W    W   A  A   R    R  NN   N  II  NN   N  G    G  !!!           |
|           W    W  A    A  R    R  N N  N  II  N N  N  G       !!!           |
|           W WW W  AAAAAA  RRRRR   N  N N  II  N  N N  G  GGG   !            |
|           WW  WW  A    A  R   R   N   NN  II  N   NN  G    G                |
|           W    W  A    A  R    R  N    N  II  N    N   GGGG   !!!           |
|                                                                             |
|      ALGO=A and IALGO=5X tend to fail with the tetrahedron method           |
|      (e.g. Bloechls method ISMEAR=-5 is not variational)                    |
|      please switch to IMSEAR=0-n, except for DOS calculations               |
|      For DOS calculations use IALGO=53 after preconverging with ISMEAR>=0   |
|          I HOPE YOU KNOW, WHAT YOU ARE  DOING                               |
|                                                                             |
 ----------------------------------------------------------------------------- 

       N       E                     dE             d eps       ncg     rms          ort
 gam= 0.000 g(H,U,f)=  0.207E+01 0.000E+00 0.000E+00 ort(H,U,f) = 0.000E+00 0.000E+00 0.000E+00
SDA:   1    -0.240852923890E+04    0.85882E+00    0.00000E+00   480   0.207E+01 0.000E+00
 gam= 0.000 trial= 0.855  step= 0.781 mean= 0.855
 gam= 0.165 g(H,U,f)=  0.341E+00 0.000E+00 0.000E+00 ort(H,U,f) = 0.167E-04 0.000E+00 0.000E+00
CGA:   2    -0.240933592327E+04   -0.80668E+00   -0.80668E+00   480   0.341E+00 0.167E-04
 gam= 0.165 trial= 0.851  step= 0.703 mean= 0.851
 gam= 0.077 g(H,U,f)=  0.264E-01 0.000E+00 0.000E+00 ort(H,U,f) = 0.559E-04 0.000E+00 0.000E+00
CGA:   3    -0.240945575435E+04   -0.11983E+00   -0.11984E+00   480   0.264E-01 0.559E-04
 gam= 0.077 trial= 0.844  step= 0.737 mean= 0.844
 gam= 0.166 g(H,U,f)=  0.438E-02 0.000E+00 0.000E+00 ort(H,U,f) = 0.161E-04 0.000E+00 0.000E+00
CGA:   4    -0.240946548444E+04   -0.97301E-02   -0.97306E-02   480   0.438E-02 0.161E-04
 gam= 0.166 trial= 0.838  step= 0.924 mean= 0.838
 gam= 0.328 g(H,U,f)=  0.144E-02 0.000E+00 0.000E+00 ort(H,U,f) = 0.112E-04 0.000E+00 0.000E+00
CGA:   5    -0.240946751018E+04   -0.20257E-02   -0.20255E-02   480   0.144E-02 0.112E-04
 gam= 0.328 trial= 0.843  step= 0.991 mean= 0.843
 gam= 0.312 g(H,U,f)=  0.448E-03 0.000E+00 0.000E+00 ort(H,U,f) = 0.121E-04 0.000E+00 0.000E+00
CGA:   6    -0.240946822387E+04   -0.71369E-03   -0.71321E-03   480   0.448E-03 0.121E-04
 gam= 0.312 trial= 0.850  step= 0.835 mean= 0.850
 gam= 0.230 g(H,U,f)=  0.103E-03 0.000E+00 0.000E+00 ort(H,U,f) = 0.763E-05 0.000E+00 0.000E+00
CGA:   7    -0.240946841254E+04   -0.18867E-03   -0.18871E-03   480   0.103E-03 0.763E-05
 gam= 0.230 trial= 0.849  step= 0.887 mean= 0.849
 gam= 0.316 g(H,U,f)=  0.326E-04 0.000E+00 0.000E+00 ort(H,U,f) = 0.401E-05 0.000E+00 0.000E+00
CGA:   8    -0.240946845912E+04   -0.46581E-04   -0.46541E-04   480   0.326E-04 0.401E-05
 gam= 0.316 trial= 0.851  step= 0.981 mean= 0.851
 gam= 0.386 g(H,U,f)=  0.126E-04 0.000E+00 0.000E+00 ort(H,U,f) = 0.389E-05 0.000E+00 0.000E+00
CGA:   9    -0.240946847588E+04   -0.16755E-04   -0.16618E-04   480   0.126E-04 0.389E-05
 gam= 0.386 trial= 0.858  step= 0.922 mean= 0.858
 gam= 0.374 g(H,U,f)=  0.471E-05 0.000E+00 0.000E+00 ort(H,U,f) = 0.369E-05 0.000E+00 0.000E+00
CGA:  10    -0.240946848245E+04   -0.65687E-05   -0.64956E-05   480   0.471E-05 0.369E-05
 gam= 0.374 trial= 0.861  step= 0.806 mean= 0.861
   5 F= -.24094685E+04 E0= -.24094685E+04  d E =-.804177E-01  mag=     2.0000
 BRION: g(F)=  0.579E-01 g(S)=  0.000E+00 retain N=  2 mean eig= 3.68
 eig:   0.270  7.092
 bond charge predicted
 writing wavefunctions

 ----------------------------------------------------------------------------- 
|                                                                             |
|           W    W    AA    RRRRR   N    N  II  N    N   GGGG   !!!           |
|           W    W   A  A   R    R  NN   N  II  NN   N  G    G  !!!           |
|           W    W  A    A  R    R  N N  N  II  N N  N  G       !!!           |
|           W WW W  AAAAAA  RRRRR   N  N N  II  N  N N  G  GGG   !            |
|           WW  WW  A    A  R   R   N   NN  II  N   NN  G    G                |
|           W    W  A    A  R    R  N    N  II  N    N   GGGG   !!!           |
|                                                                             |
|      ALGO=A and IALGO=5X tend to fail with the tetrahedron method           |
|      (e.g. Bloechls method ISMEAR=-5 is not variational)                    |
|      please switch to IMSEAR=0-n, except for DOS calculations               |
|      For DOS calculations use IALGO=53 after preconverging with ISMEAR>=0   |
|          I HOPE YOU KNOW, WHAT YOU ARE  DOING                               |
|                                                                             |
 ----------------------------------------------------------------------------- 

       N       E                     dE             d eps       ncg     rms          ort
 gam= 0.000 g(H,U,f)=  0.386E+00 0.000E+00 0.000E+00 ort(H,U,f) = 0.000E+00 0.000E+00 0.000E+00
SDA:   1    -0.240928932500E+04    0.17915E+00    0.00000E+00   480   0.386E+00 0.000E+00
 gam= 0.000 trial= 0.858  step= 0.788 mean= 0.858
 gam= 0.173 g(H,U,f)=  0.667E-01 0.000E+00 0.000E+00 ort(H,U,f) = 0.499E-04 0.000E+00 0.000E+00
CGA:   2    -0.240944149485E+04   -0.15217E+00   -0.15217E+00   480   0.667E-01 0.499E-04
 gam= 0.173 trial= 0.855  step= 0.686 mean= 0.855
 gam= 0.097 g(H,U,f)=  0.645E-02 0.000E+00 0.000E+00 ort(H,U,f) = 0.108E-04 0.000E+00 0.000E+00
CGA:   3    -0.240946438481E+04   -0.22890E-01   -0.22891E-01   480   0.645E-02 0.108E-04
 gam= 0.097 trial= 0.846  step= 0.709 mean= 0.846
 gam= 0.159 g(H,U,f)=  0.103E-02 0.000E+00 0.000E+00 ort(H,U,f) = 0.638E-05 0.000E+00 0.000E+00
CGA:   4    -0.240946667303E+04   -0.22882E-02   -0.22884E-02   480   0.103E-02 0.638E-05
 gam= 0.159 trial= 0.839  step= 0.909 mean= 0.839
 gam= 0.308 g(H,U,f)=  0.316E-03 0.000E+00 0.000E+00 ort(H,U,f) = 0.557E-05 0.000E+00 0.000E+00
CGA:   5    -0.240946714045E+04   -0.46741E-03   -0.46733E-03   480   0.316E-03 0.557E-05
 gam= 0.308 trial= 0.843  step= 0.983 mean= 0.843
 gam= 0.317 g(H,U,f)=  0.100E-03 0.000E+00 0.000E+00 ort(H,U,f) = 0.548E-05 0.000E+00 0.000E+00
CGA:   6    -0.240946729676E+04   -0.15632E-03   -0.15614E-03   480   0.100E-03 0.548E-05
 gam= 0.317 trial= 0.850  step= 0.852 mean= 0.850
 gam= 0.253 g(H,U,f)=  0.254E-04 0.000E+00 0.000E+00 ort(H,U,f) = 0.446E-05 0.000E+00 0.000E+00
CGA:   7    -0.240946734023E+04   -0.43468E-04   -0.43465E-04   480   0.254E-04 0.446E-05
 gam= 0.253 trial= 0.850  step= 0.906 mean= 0.850
 gam= 0.333 g(H,U,f)=  0.846E-05 0.000E+00 0.000E+00 ort(H,U,f) = 0.286E-05 0.000E+00 0.000E+00
CGA:   8    -0.240946735228E+04   -0.12046E-04   -0.12001E-04   480   0.846E-05 0.286E-05
 gam= 0.333 trial= 0.853  step= 0.939 mean= 0.853
 gam= 0.430 g(H,U,f)=  0.364E-05 0.000E+00 0.000E+00 ort(H,U,f) = 0.259E-05 0.000E+00 0.000E+00
CGA:   9    -0.240946735676E+04   -0.44845E-05   -0.44208E-05   480   0.364E-05 0.259E-05
 gam= 0.430 trial= 0.857  step= 0.789 mean= 0.857
   6 F= -.24094674E+04 E0= -.24094674E+04  d E =0.112568E-02  mag=     2.0000
 BRION: g(F)=  0.662E-01 g(S)=  0.000E+00 retain N=  2 mean eig= 0.21
 eig:   0.138  0.286
 bond charge predicted
 writing wavefunctions

 ----------------------------------------------------------------------------- 
|                                                                             |
|           W    W    AA    RRRRR   N    N  II  N    N   GGGG   !!!           |
|           W    W   A  A   R    R  NN   N  II  NN   N  G    G  !!!           |
|           W    W  A    A  R    R  N N  N  II  N N  N  G       !!!           |
|           W WW W  AAAAAA  RRRRR   N  N N  II  N  N N  G  GGG   !            |
|           WW  WW  A    A  R   R   N   NN  II  N   NN  G    G                |
|           W    W  A    A  R    R  N    N  II  N    N   GGGG   !!!           |
|                                                                             |
|      ALGO=A and IALGO=5X tend to fail with the tetrahedron method           |
|      (e.g. Bloechls method ISMEAR=-5 is not variational)                    |
|      please switch to IMSEAR=0-n, except for DOS calculations               |
|      For DOS calculations use IALGO=53 after preconverging with ISMEAR>=0   |
|          I HOPE YOU KNOW, WHAT YOU ARE  DOING                               |
|                                                                             |
 ----------------------------------------------------------------------------- 

       N       E                     dE             d eps       ncg     rms          ort
 gam= 0.000 g(H,U,f)=  0.533E+00 0.000E+00 0.000E+00 ort(H,U,f) = 0.000E+00 0.000E+00 0.000E+00
SDA:   1    -0.240921133536E+04    0.25602E+00    0.00000E+00   480   0.533E+00 0.000E+00
 gam= 0.000 trial= 0.854  step= 0.796 mean= 0.854
 gam= 0.159 g(H,U,f)=  0.847E-01 0.000E+00 0.000E+00 ort(H,U,f) =-0.148E-04 0.000E+00 0.000E+00
CGA:   2    -0.240942336670E+04   -0.21203E+00   -0.21203E+00   480   0.847E-01-0.148E-04
 gam= 0.159 trial= 0.851  step= 0.696 mean= 0.851
 gam= 0.083 g(H,U,f)=  0.706E-02 0.000E+00 0.000E+00 ort(H,U,f) = 0.118E-04 0.000E+00 0.000E+00
CGA:   3    -0.240945284049E+04   -0.29474E-01   -0.29474E-01   480   0.706E-02 0.118E-04
 gam= 0.083 trial= 0.843  step= 0.736 mean= 0.843
 gam= 0.170 g(H,U,f)=  0.120E-02 0.000E+00 0.000E+00 ort(H,U,f) = 0.460E-05 0.000E+00 0.000E+00
CGA:   4    -0.240945543595E+04   -0.25955E-02   -0.25956E-02   480   0.120E-02 0.460E-05
 gam= 0.170 trial= 0.838  step= 0.941 mean= 0.838
 gam= 0.339 g(H,U,f)=  0.408E-03 0.000E+00 0.000E+00 ort(H,U,f) = 0.341E-05 0.000E+00 0.000E+00
CGA:   5    -0.240945600235E+04   -0.56640E-03   -0.56632E-03   480   0.408E-03 0.341E-05
 gam= 0.339 trial= 0.843  step= 1.049 mean= 0.843
 gam= 0.318 g(H,U,f)=  0.130E-03 0.000E+00 0.000E+00 ort(H,U,f) = 0.532E-05 0.000E+00 0.000E+00
CGA:   6    -0.240945621722E+04   -0.21486E-03   -0.21459E-03   480   0.130E-03 0.532E-05
 gam= 0.318 trial= 0.853  step= 0.905 mean= 0.853
 gam= 0.243 g(H,U,f)=  0.315E-04 0.000E+00 0.000E+00 ort(H,U,f) = 0.399E-05 0.000E+00 0.000E+00
CGA:   7    -0.240945627675E+04   -0.59531E-04   -0.59470E-04   480   0.315E-04 0.399E-05
 gam= 0.243 trial= 0.856  step= 0.955 mean= 0.856
 gam= 0.378 g(H,U,f)=  0.119E-04 0.000E+00 0.000E+00 ort(H,U,f) = 0.261E-05 0.000E+00 0.000E+00
CGA:   8    -0.240945629230E+04   -0.15553E-04   -0.15489E-04   480   0.119E-04 0.261E-05
 gam= 0.378 trial= 0.861  step= 0.971 mean= 0.861
 gam= 0.463 g(H,U,f)=  0.551E-05 0.000E+00 0.000E+00 ort(H,U,f) = 0.293E-05 0.000E+00 0.000E+00
CGA:   9    -0.240945629865E+04   -0.63528E-05   -0.62605E-05   480   0.551E-05 0.293E-05
 gam= 0.463 trial= 0.866  step= 0.836 mean= 0.866
   7 F= -.24094563E+04 E0= -.24094563E+04  d E =0.110581E-01  mag=     2.0000
 BRION: g(F)=  0.125E+00 g(S)=  0.000E+00 retain N=  3 mean eig= 0.47
 eig:   0.973  0.212  0.212
 bond charge predicted
 writing wavefunctions

 ----------------------------------------------------------------------------- 
|                                                                             |
|           W    W    AA    RRRRR   N    N  II  N    N   GGGG   !!!           |
|           W    W   A  A   R    R  NN   N  II  NN   N  G    G  !!!           |
|           W    W  A    A  R    R  N N  N  II  N N  N  G       !!!           |
|           W WW W  AAAAAA  RRRRR   N  N N  II  N  N N  G  GGG   !            |
|           WW  WW  A    A  R   R   N   NN  II  N   NN  G    G                |
|           W    W  A    A  R    R  N    N  II  N    N   GGGG   !!!           |
|                                                                             |
|      ALGO=A and IALGO=5X tend to fail with the tetrahedron method           |
|      (e.g. Bloechls method ISMEAR=-5 is not variational)                    |
|      please switch to IMSEAR=0-n, except for DOS calculations               |
|      For DOS calculations use IALGO=53 after preconverging with ISMEAR>=0   |
|          I HOPE YOU KNOW, WHAT YOU ARE  DOING                               |
|                                                                             |
 ----------------------------------------------------------------------------- 

       N       E                     dE             d eps       ncg     rms          ort
 gam= 0.000 g(H,U,f)=  0.237E+00 0.000E+00 0.000E+00 ort(H,U,f) = 0.000E+00 0.000E+00 0.000E+00
SDA:   1    -0.240936023293E+04    0.96059E-01    0.00000E+00   480   0.237E+00 0.000E+00
 gam= 0.000 trial= 0.865  step= 0.837 mean= 0.865
 gam= 0.153 g(H,U,f)=  0.362E-01 0.000E+00 0.000E+00 ort(H,U,f) = 0.170E-04 0.000E+00 0.000E+00
CGA:   2    -0.240945927224E+04   -0.99039E-01   -0.99039E-01   480   0.362E-01 0.170E-04
 gam= 0.153 trial= 0.863  step= 0.673 mean= 0.863
 gam= 0.095 g(H,U,f)=  0.344E-02 0.000E+00 0.000E+00 ort(H,U,f) = 0.925E-06 0.000E+00 0.000E+00
CGA:   3    -0.240947147558E+04   -0.12203E-01   -0.12203E-01   480   0.344E-02 0.925E-06
 gam= 0.095 trial= 0.854  step= 0.733 mean= 0.854
 gam= 0.176 g(H,U,f)=  0.606E-03 0.000E+00 0.000E+00 ort(H,U,f) = 0.115E-05 0.000E+00 0.000E+00
CGA:   4    -0.240947273818E+04   -0.12626E-02   -0.12626E-02   480   0.606E-03 0.115E-05
 gam= 0.176 trial= 0.848  step= 0.960 mean= 0.848
 gam= 0.332 g(H,U,f)=  0.201E-03 0.000E+00 0.000E+00 ort(H,U,f) = 0.283E-05 0.000E+00 0.000E+00
CGA:   5    -0.240947302950E+04   -0.29132E-03   -0.29127E-03   480   0.201E-03 0.283E-05
 gam= 0.332 trial= 0.854  step= 1.092 mean= 0.854
 gam= 0.318 g(H,U,f)=  0.640E-04 0.000E+00 0.000E+00 ort(H,U,f) = 0.352E-05 0.000E+00 0.000E+00
CGA:   6    -0.240947314014E+04   -0.11065E-03   -0.11044E-03   480   0.640E-04 0.352E-05
 gam= 0.318 trial= 0.865  step= 0.933 mean= 0.865
 gam= 0.277 g(H,U,f)=  0.177E-04 0.000E+00 0.000E+00 ort(H,U,f) = 0.288E-05 0.000E+00 0.000E+00
CGA:   7    -0.240947317057E+04   -0.30426E-04   -0.30371E-04   480   0.177E-04 0.288E-05
 gam= 0.277 trial= 0.869  step= 0.957 mean= 0.869
 gam= 0.394 g(H,U,f)=  0.698E-05 0.000E+00 0.000E+00 ort(H,U,f) = 0.214E-05 0.000E+00 0.000E+00
CGA:   8    -0.240947317949E+04   -0.89210E-05   -0.88687E-05   480   0.698E-05 0.214E-05
 gam= 0.394 trial= 0.873  step= 0.946 mean= 0.873
   8 F= -.24094732E+04 E0= -.24094732E+04  d E =-.168808E-01  mag=     2.0000
 BRION: g(F)=  0.220E-02 g(S)=  0.000E+00 retain N=  2 mean eig= 3.16
 eig:   0.231  6.081
 bond charge predicted
 writing wavefunctions

 ----------------------------------------------------------------------------- 
|                                                                             |
|           W    W    AA    RRRRR   N    N  II  N    N   GGGG   !!!           |
|           W    W   A  A   R    R  NN   N  II  NN   N  G    G  !!!           |
|           W    W  A    A  R    R  N N  N  II  N N  N  G       !!!           |
|           W WW W  AAAAAA  RRRRR   N  N N  II  N  N N  G  GGG   !            |
|           WW  WW  A    A  R   R   N   NN  II  N   NN  G    G                |
|           W    W  A    A  R    R  N    N  II  N    N   GGGG   !!!           |
|                                                                             |
|      ALGO=A and IALGO=5X tend to fail with the tetrahedron method           |
|      (e.g. Bloechls method ISMEAR=-5 is not variational)                    |
|      please switch to IMSEAR=0-n, except for DOS calculations               |
|      For DOS calculations use IALGO=53 after preconverging with ISMEAR>=0   |
|          I HOPE YOU KNOW, WHAT YOU ARE  DOING                               |
|                                                                             |
 ----------------------------------------------------------------------------- 

       N       E                     dE             d eps       ncg     rms          ort
 gam= 0.000 g(H,U,f)=  0.348E-01 0.000E+00 0.000E+00 ort(H,U,f) = 0.000E+00 0.000E+00 0.000E+00
SDA:   1    -0.240945778864E+04    0.15382E-01    0.00000E+00   480   0.348E-01 0.000E+00
 gam= 0.000 trial= 0.877  step= 0.764 mean= 0.877
 gam= 0.188 g(H,U,f)=  0.655E-02 0.000E+00 0.000E+00 ort(H,U,f) = 0.858E-06 0.000E+00 0.000E+00
CGA:   2    -0.240947105733E+04   -0.13269E-01   -0.13269E-01   480   0.655E-02 0.858E-06
 gam= 0.188 trial= 0.871  step= 0.703 mean= 0.871
 gam= 0.083 g(H,U,f)=  0.546E-03 0.000E+00 0.000E+00 ort(H,U,f) = 0.251E-06 0.000E+00 0.000E+00
CGA:   3    -0.240947335771E+04   -0.23004E-02   -0.23003E-02   480   0.546E-03 0.251E-06
 gam= 0.083 trial= 0.863  step= 0.744 mean= 0.863
 gam= 0.166 g(H,U,f)=  0.907E-04 0.000E+00 0.000E+00 ort(H,U,f) = 0.833E-06 0.000E+00 0.000E+00
CGA:   4    -0.240947356079E+04   -0.20308E-03   -0.20309E-03   480   0.907E-04 0.833E-06
 gam= 0.166 trial= 0.857  step= 0.924 mean= 0.857
 gam= 0.300 g(H,U,f)=  0.272E-04 0.000E+00 0.000E+00 ort(H,U,f) = 0.140E-05 0.000E+00 0.000E+00
CGA:   5    -0.240947360274E+04   -0.41951E-04   -0.41940E-04   480   0.272E-04 0.140E-05
 gam= 0.300 trial= 0.860  step= 1.026 mean= 0.860
 gam= 0.330 g(H,U,f)=  0.897E-05 0.000E+00 0.000E+00 ort(H,U,f) = 0.188E-05 0.000E+00 0.000E+00
CGA:   6    -0.240947361698E+04   -0.14238E-04   -0.14175E-04   480   0.897E-05 0.188E-05
 gam= 0.330 trial= 0.869  step= 0.940 mean= 0.869
 gam= 0.344 g(H,U,f)=  0.309E-05 0.000E+00 0.000E+00 ort(H,U,f) = 0.193E-05 0.000E+00 0.000E+00
CGA:   7    -0.240947362152E+04   -0.45413E-05   -0.45046E-05   480   0.309E-05 0.193E-05
 gam= 0.344 trial= 0.872  step= 0.835 mean= 0.872
   9 F= -.24094736E+04 E0= -.24094736E+04  d E =-.442029E-03  mag=     2.0000
 BRION: g(F)=  0.571E-02 g(S)=  0.000E+00 retain N=  3 mean eig= 2.52
 eig:   0.252  0.252  7.060
 bond charge predicted
 writing wavefunctions

 ----------------------------------------------------------------------------- 
|                                                                             |
|           W    W    AA    RRRRR   N    N  II  N    N   GGGG   !!!           |
|           W    W   A  A   R    R  NN   N  II  NN   N  G    G  !!!           |
|           W    W  A    A  R    R  N N  N  II  N N  N  G       !!!           |
|           W WW W  AAAAAA  RRRRR   N  N N  II  N  N N  G  GGG   !            |
|           WW  WW  A    A  R   R   N   NN  II  N   NN  G    G                |
|           W    W  A    A  R    R  N    N  II  N    N   GGGG   !!!           |
|                                                                             |
|      ALGO=A and IALGO=5X tend to fail with the tetrahedron method           |
|      (e.g. Bloechls method ISMEAR=-5 is not variational)                    |
|      please switch to IMSEAR=0-n, except for DOS calculations               |
|      For DOS calculations use IALGO=53 after preconverging with ISMEAR>=0   |
|          I HOPE YOU KNOW, WHAT YOU ARE  DOING                               |
|                                                                             |
 ----------------------------------------------------------------------------- 

       N       E                     dE             d eps       ncg     rms          ort
 gam= 0.000 g(H,U,f)=  0.163E-01 0.000E+00 0.000E+00 ort(H,U,f) = 0.000E+00 0.000E+00 0.000E+00
SDA:   1    -0.240946643826E+04    0.71787E-02    0.00000E+00   480   0.163E-01 0.000E+00
 gam= 0.000 trial= 0.870  step= 0.782 mean= 0.870
 gam= 0.163 g(H,U,f)=  0.266E-02 0.000E+00 0.000E+00 ort(H,U,f) = 0.736E-06 0.000E+00 0.000E+00
CGA:   2    -0.240947281174E+04   -0.63735E-02   -0.63735E-02   480   0.266E-02 0.736E-06
 gam= 0.163 trial= 0.866  step= 0.721 mean= 0.866
 gam= 0.091 g(H,U,f)=  0.242E-03 0.000E+00 0.000E+00 ort(H,U,f) = 0.107E-05 0.000E+00 0.000E+00
CGA:   3    -0.240947377040E+04   -0.95866E-03   -0.95867E-03   480   0.242E-03 0.107E-05
 gam= 0.091 trial= 0.859  step= 0.756 mean= 0.859
 gam= 0.176 g(H,U,f)=  0.426E-04 0.000E+00 0.000E+00 ort(H,U,f) = 0.138E-05 0.000E+00 0.000E+00
CGA:   4    -0.240947386206E+04   -0.91656E-04   -0.91673E-04   480   0.426E-04 0.138E-05
 gam= 0.176 trial= 0.853  step= 0.914 mean= 0.853
 gam= 0.336 g(H,U,f)=  0.143E-04 0.000E+00 0.000E+00 ort(H,U,f) = 0.149E-05 0.000E+00 0.000E+00
CGA:   5    -0.240947388165E+04   -0.19590E-04   -0.19576E-04   480   0.143E-04 0.149E-05
 gam= 0.336 trial= 0.856  step= 0.996 mean= 0.856
 gam= 0.360 g(H,U,f)=  0.515E-05 0.000E+00 0.000E+00 ort(H,U,f) = 0.219E-05 0.000E+00 0.000E+00
CGA:   6    -0.240947388909E+04   -0.74415E-05   -0.73736E-05   480   0.515E-05 0.219E-05
 gam= 0.360 trial= 0.863  step= 0.866 mean= 0.863
  10 F= -.24094739E+04 E0= -.24094739E+04  d E =-.267571E-03  mag=     2.0000
 BRION: g(F)=  0.345E-03 g(S)=  0.000E+00 retain N=  2 mean eig= 3.69
 eig:   0.269  7.104
 bond charge predicted
 writing wavefunctions

 ----------------------------------------------------------------------------- 
|                                                                             |
|           W    W    AA    RRRRR   N    N  II  N    N   GGGG   !!!           |
|           W    W   A  A   R    R  NN   N  II  NN   N  G    G  !!!           |
|           W    W  A    A  R    R  N N  N  II  N N  N  G       !!!           |
|           W WW W  AAAAAA  RRRRR   N  N N  II  N  N N  G  GGG   !            |
|           WW  WW  A    A  R   R   N   NN  II  N   NN  G    G                |
|           W    W  A    A  R    R  N    N  II  N    N   GGGG   !!!           |
|                                                                             |
|      ALGO=A and IALGO=5X tend to fail with the tetrahedron method           |
|      (e.g. Bloechls method ISMEAR=-5 is not variational)                    |
|      please switch to IMSEAR=0-n, except for DOS calculations               |
|      For DOS calculations use IALGO=53 after preconverging with ISMEAR>=0   |
|          I HOPE YOU KNOW, WHAT YOU ARE  DOING                               |
|                                                                             |
 ----------------------------------------------------------------------------- 

       N       E                     dE             d eps       ncg     rms          ort
 gam= 0.000 g(H,U,f)=  0.259E-02 0.000E+00 0.000E+00 ort(H,U,f) = 0.000E+00 0.000E+00 0.000E+00
SDA:   1    -0.240947244667E+04    0.14350E-02    0.00000E+00   480   0.259E-02 0.000E+00
 gam= 0.000 trial= 0.864  step= 0.805 mean= 0.864
 gam= 0.196 g(H,U,f)=  0.506E-03 0.000E+00 0.000E+00 ort(H,U,f) = 0.179E-05 0.000E+00 0.000E+00
CGA:   2    -0.240947348763E+04   -0.10410E-02   -0.10410E-02   480   0.506E-03 0.179E-05
 gam= 0.196 trial= 0.861  step= 0.686 mean= 0.861
 gam= 0.097 g(H,U,f)=  0.489E-04 0.000E+00 0.000E+00 ort(H,U,f) = 0.114E-05 0.000E+00 0.000E+00
CGA:   3    -0.240947366130E+04   -0.17367E-03   -0.17369E-03   480   0.489E-04 0.114E-05
 gam= 0.097 trial= 0.852  step= 0.794 mean= 0.852
 gam= 0.215 g(H,U,f)=  0.105E-04 0.000E+00 0.000E+00 ort(H,U,f) = 0.135E-05 0.000E+00 0.000E+00
CGA:   4    -0.240947368075E+04   -0.19449E-04   -0.19459E-04   480   0.105E-04 0.135E-05
 gam= 0.215 trial= 0.849  step= 0.981 mean= 0.849
 gam= 0.416 g(H,U,f)=  0.437E-05 0.000E+00 0.000E+00 ort(H,U,f) = 0.175E-05 0.000E+00 0.000E+00
CGA:   5    -0.240947368608E+04   -0.53248E-05   -0.52839E-05   480   0.437E-05 0.175E-05
 gam= 0.416 trial= 0.856  step= 0.895 mean= 0.856
  11 F= -.24094737E+04 E0= -.24094737E+04  d E =0.203011E-03  mag=     2.0000
 BRION: g(F)=  0.402E-03 g(S)=  0.000E+00 retain N=  2 mean eig= 0.07
 eig:   0.083  0.051
 bond charge predicted
 writing wavefunctions

 ----------------------------------------------------------------------------- 
|                                                                             |
|           W    W    AA    RRRRR   N    N  II  N    N   GGGG   !!!           |
|           W    W   A  A   R    R  NN   N  II  NN   N  G    G  !!!           |
|           W    W  A    A  R    R  N N  N  II  N N  N  G       !!!           |
|           W WW W  AAAAAA  RRRRR   N  N N  II  N  N N  G  GGG   !            |
|           WW  WW  A    A  R   R   N   NN  II  N   NN  G    G                |
|           W    W  A    A  R    R  N    N  II  N    N   GGGG   !!!           |
|                                                                             |
|      ALGO=A and IALGO=5X tend to fail with the tetrahedron method           |
|      (e.g. Bloechls method ISMEAR=-5 is not variational)                    |
|      please switch to IMSEAR=0-n, except for DOS calculations               |
|      For DOS calculations use IALGO=53 after preconverging with ISMEAR>=0   |
|          I HOPE YOU KNOW, WHAT YOU ARE  DOING                               |
|                                                                             |
 ----------------------------------------------------------------------------- 

       N       E                     dE             d eps       ncg     rms          ort
 gam= 0.000 g(H,U,f)=  0.377E-02 0.000E+00 0.000E+00 ort(H,U,f) = 0.000E+00 0.000E+00 0.000E+00
SDA:   1    -0.240947192753E+04    0.17532E-02    0.00000E+00   480   0.377E-02 0.000E+00
 gam= 0.000 trial= 0.858  step= 0.788 mean= 0.858
 gam= 0.149 g(H,U,f)=  0.563E-03 0.000E+00 0.000E+00 ort(H,U,f) = 0.265E-06 0.000E+00 0.000E+00
CGA:   2    -0.240947341441E+04   -0.14869E-02   -0.14869E-02   480   0.563E-03 0.265E-06
 gam= 0.149 trial= 0.854  step= 0.744 mean= 0.854
 gam= 0.098 g(H,U,f)=  0.550E-04 0.000E+00 0.000E+00 ort(H,U,f) = 0.128E-05 0.000E+00 0.000E+00
CGA:   3    -0.240947362374E+04   -0.20933E-03   -0.20934E-03   480   0.550E-04 0.128E-05
 gam= 0.098 trial= 0.849  step= 0.779 mean= 0.849
 gam= 0.204 g(H,U,f)=  0.112E-04 0.000E+00 0.000E+00 ort(H,U,f) = 0.102E-05 0.000E+00 0.000E+00
CGA:   4    -0.240947364521E+04   -0.21463E-04   -0.21471E-04   480   0.112E-04 0.102E-05
 gam= 0.204 trial= 0.845  step= 1.020 mean= 0.845
 gam= 0.413 g(H,U,f)=  0.463E-05 0.000E+00 0.000E+00 ort(H,U,f) = 0.143E-05 0.000E+00 0.000E+00
CGA:   5    -0.240947365106E+04   -0.58565E-05   -0.58231E-05   480   0.463E-05 0.143E-05
 gam= 0.413 trial= 0.854  step= 0.925 mean= 0.854
  12 F= -.24094737E+04 E0= -.24094737E+04  d E =0.350159E-04  mag=     2.0000
 BRION: g(F)=  0.925E-03 g(S)=  0.000E+00 retain N=  3 mean eig= 0.40
 eig:   0.757  0.220  0.220
 bond charge predicted
 writing wavefunctions

 ----------------------------------------------------------------------------- 
|                                                                             |
|           W    W    AA    RRRRR   N    N  II  N    N   GGGG   !!!           |
|           W    W   A  A   R    R  NN   N  II  NN   N  G    G  !!!           |
|           W    W  A    A  R    R  N N  N  II  N N  N  G       !!!           |
|           W WW W  AAAAAA  RRRRR   N  N N  II  N  N N  G  GGG   !            |
|           WW  WW  A    A  R   R   N   NN  II  N   NN  G    G                |
|           W    W  A    A  R    R  N    N  II  N    N   GGGG   !!!           |
|                                                                             |
|      ALGO=A and IALGO=5X tend to fail with the tetrahedron method           |
|      (e.g. Bloechls method ISMEAR=-5 is not variational)                    |
|      please switch to IMSEAR=0-n, except for DOS calculations               |
|      For DOS calculations use IALGO=53 after preconverging with ISMEAR>=0   |
|          I HOPE YOU KNOW, WHAT YOU ARE  DOING                               |
|                                                                             |
 ----------------------------------------------------------------------------- 

       N       E                     dE             d eps       ncg     rms          ort
 gam= 0.000 g(H,U,f)=  0.174E-02 0.000E+00 0.000E+00 ort(H,U,f) = 0.000E+00 0.000E+00 0.000E+00
SDA:   1    -0.240947301653E+04    0.62868E-03    0.00000E+00   480   0.174E-02 0.000E+00
 gam= 0.000 trial= 0.857  step= 0.804 mean= 0.857
 gam= 0.156 g(H,U,f)=  0.272E-03 0.000E+00 0.000E+00 ort(H,U,f) = 0.867E-06 0.000E+00 0.000E+00
CGA:   2    -0.240947371632E+04   -0.69979E-03   -0.69979E-03   480   0.272E-03 0.867E-06
 gam= 0.156 trial= 0.855  step= 0.756 mean= 0.855
 gam= 0.096 g(H,U,f)=  0.262E-04 0.000E+00 0.000E+00 ort(H,U,f) = 0.646E-06 0.000E+00 0.000E+00
CGA:   3    -0.240947381928E+04   -0.10296E-03   -0.10295E-03   480   0.262E-04 0.646E-06
 gam= 0.096 trial= 0.850  step= 0.811 mean= 0.850
 gam= 0.230 g(H,U,f)=  0.602E-05 0.000E+00 0.000E+00 ort(H,U,f) = 0.109E-05 0.000E+00 0.000E+00
CGA:   4    -0.240947382990E+04   -0.10625E-04   -0.10629E-04   480   0.602E-05 0.109E-05
 gam= 0.230 trial= 0.848  step= 0.977 mean= 0.848
 gam= 0.487 g(H,U,f)=  0.293E-05 0.000E+00 0.000E+00 ort(H,U,f) = 0.149E-05 0.000E+00 0.000E+00
CGA:   5    -0.240947383299E+04   -0.30920E-05   -0.30600E-05   480   0.293E-05 0.149E-05
 gam= 0.487 trial= 0.854  step= 0.777 mean= 0.854
  13 F= -.24094738E+04 E0= -.24094738E+04  d E =-.181933E-03  mag=     2.0000
 BRION: g(F)=  0.109E-04 g(S)=  0.000E+00 retain N=  1 mean eig= 0.23
 eig:   0.228
 reached required accuracy - stopping structural energy minimisation
 writing wavefunctions
