 running on  512 total cores
 distrk:  each k-point on  512 cores,    1 groups
 distr:  one band on   16 cores,   32 groups
 using from now: INCAR     
 vasp.5.4.4.18Apr17-6-g9f103f2a35 (build Dec 19 2024 10:44:08) gamma-only        
 POSCAR found type information on POSCAR  Si C 
 POSCAR found :  2 types and     215 ions
 scaLAPACK will be used
 LDA part: xc-table for Pade appr. of Perdew

 ----------------------------------------------------------------------------- 
|                                                                             |
|           W    W    AA    RRRRR   N    N  II  N    N   GGGG   !!!           |
|           W    W   A  A   R    R  NN   N  II  NN   N  G    G  !!!           |
|           W    W  A    A  R    R  N N  N  II  N N  N  G       !!!           |
|           W WW W  AAAAAA  RRRRR   N  N N  II  N  N N  G  GGG   !            |
|           WW  WW  A    A  R   R   N   NN  II  N   NN  G    G                |
|           W    W  A    A  R    R  N    N  II  N    N   GGGG   !!!           |
|                                                                             |
|      The number of bands has been changed from the values supplied          |
|      in the INCAR file. This is a result of running the parallel version.   |
|      The orbitals not found in the WAVECAR file will be initialized with    |
|      random numbers, which is usually adequate. For correlated              |
|      calculations, however, you should redo the groundstate calculation.    |
|      I found NBANDS    =      450  now  NBANDS  =     480                   |
|                                                                             |
 ----------------------------------------------------------------------------- 

 POSCAR, INCAR and KPOINTS ok, starting setup
 FFT: planning ...
 WAVECAR not read
 WARNING: random wavefunctions but no delay for mixing, default for NELMDL
 entering main loop

 ----------------------------------------------------------------------------- 
|                                                                             |
|           W    W    AA    RRRRR   N    N  II  N    N   GGGG   !!!           |
|           W    W   A  A   R    R  NN   N  II  NN   N  G    G  !!!           |
|           W    W  A    A  R    R  N N  N  II  N N  N  G       !!!           |
|           W WW W  AAAAAA  RRRRR   N  N N  II  N  N N  G  GGG   !            |
|           WW  WW  A    A  R   R   N   NN  II  N   NN  G    G                |
|           W    W  A    A  R    R  N    N  II  N    N   GGGG   !!!           |
|                                                                             |
|      ALGO=A and IALGO=5X tend to fail with the tetrahedron method           |
|      (e.g. Bloechls method ISMEAR=-5 is not variational)                    |
|      please switch to IMSEAR=0-n, except for DOS calculations               |
|      For DOS calculations use IALGO=53 after preconverging with ISMEAR>=0   |
|          I HOPE YOU KNOW, WHAT YOU ARE  DOING                               |
|                                                                             |
 ----------------------------------------------------------------------------- 

       N       E                     dE             d eps       ncg     rms          ort
DAV:   1     0.778461823073E+04    0.77846E+04   -0.45017E+05   480   0.151E+03
DAV:   2     0.166350093243E+03   -0.76183E+04   -0.73764E+04   480   0.363E+02
DAV:   3    -0.465329966043E+03   -0.63168E+03   -0.62777E+03   480   0.103E+02
DAV:   4    -0.479324412762E+03   -0.13994E+02   -0.13965E+02   480   0.176E+01
DAV:   5    -0.479591061243E+03   -0.26665E+00   -0.26650E+00   480   0.229E+00
 gam= 0.000 g(H,U,f)=  0.218E+02 0.482E+01 0.000E+00 ort(H,U,f) = 0.000E+00 0.000E+00 0.000E+00
SDA:   6    -0.240042566167E+04   -0.19208E+04   -0.26650E+00   480   0.266E+02 0.000E+00
 gam= 0.000 trial= 0.400  step= 0.480 mean= 0.400
 gam= 0.285 g(H,U,f)=  0.590E+01 0.168E+01 0.000E+00 ort(H,U,f) = 0.315E+01-0.218E+01 0.000E+00
CGA:   7    -0.240684587299E+04   -0.64202E+01   -0.63809E+01   480   0.757E+01 0.963E+00
 gam= 0.285 trial= 0.404  step= 0.485 mean= 0.404
 gam= 0.138 g(H,U,f)=  0.744E+00 0.301E+00 0.000E+00 ort(H,U,f) = 0.156E+00-0.211E+00 0.000E+00
CGA:   8    -0.240875473483E+04   -0.19089E+01   -0.19043E+01   480   0.104E+01-0.553E-01
 gam= 0.138 trial= 0.408  step= 0.781 mean= 0.408
 gam= 0.286 g(H,U,f)=  0.212E+00 0.869E-01 0.000E+00 ort(H,U,f) =-0.646E-01 0.241E-01 0.000E+00
CGA:   9    -0.240915527895E+04   -0.40054E+00   -0.40460E+00   480   0.299E+00-0.405E-01
 gam= 0.286 trial= 0.427  step= 0.706 mean= 0.427
 gam= 0.402 g(H,U,f)=  0.807E-01 0.391E-01 0.000E+00 ort(H,U,f) =-0.226E-01 0.129E-01 0.000E+00
CGA:  10    -0.240925580463E+04   -0.10053E+00   -0.10122E+00   480   0.120E+00-0.967E-02
 gam= 0.402 trial= 0.441  step= 0.870 mean= 0.441
 gam= 0.436 g(H,U,f)=  0.444E-01 0.781E-02 0.000E+00 ort(H,U,f) =-0.101E-01 0.235E-02 0.000E+00
CGA:  11    -0.240930477057E+04   -0.48966E-01   -0.50463E-01   480   0.522E-01-0.774E-02
 gam= 0.436 trial= 0.462  step= 0.887 mean= 0.462
 gam= 0.563 g(H,U,f)=  0.212E-01 0.820E-02 0.000E+00 ort(H,U,f) =-0.348E-02 0.186E-02 0.000E+00
CGA:  12    -0.240932627837E+04   -0.21508E-01   -0.21669E-01   480   0.294E-01-0.162E-02
 gam= 0.563 trial= 0.483  step= 0.828 mean= 0.483
 gam= 0.599 g(H,U,f)=  0.118E-01 0.580E-02 0.000E+00 ort(H,U,f) =-0.498E-02 0.416E-02 0.000E+00
CGA:  13    -0.240933796019E+04   -0.11682E-01   -0.11794E-01   480   0.176E-01-0.814E-03
 gam= 0.599 trial= 0.501  step= 1.089 mean= 0.501
 gam= 0.943 g(H,U,f)=  0.107E-01 0.592E-02 0.000E+00 ort(H,U,f) =-0.671E-02 0.625E-02 0.000E+00
CGA:  14    -0.240934723996E+04   -0.92798E-02   -0.93268E-02   480   0.166E-01-0.460E-03
 gam= 0.943 trial= 0.530  step= 1.021 mean= 0.530
 gam= 1.172 g(H,U,f)=  0.154E-01 0.403E-02 0.000E+00 ort(H,U,f) =-0.916E-02 0.862E-02 0.000E+00
CGA:  15    -0.240935541239E+04   -0.81724E-02   -0.82554E-02   480   0.195E-01-0.537E-03
 gam= 1.172 trial= 0.555  step= 0.920 mean= 0.555
 gam= 1.011 g(H,U,f)=  0.169E-01 0.276E-02 0.000E+00 ort(H,U,f) =-0.101E-01 0.850E-02 0.000E+00
CGA:  16    -0.240936379435E+04   -0.83820E-02   -0.86639E-02   480   0.197E-01-0.156E-02
 gam= 1.011 trial= 0.573  step= 0.697 mean= 0.573
 gam= 0.893 g(H,U,f)=  0.151E-01 0.245E-02 0.000E+00 ort(H,U,f) =-0.536E-02 0.497E-02 0.000E+00
CGA:  17    -0.240937007524E+04   -0.62809E-02   -0.63079E-02   480   0.176E-01-0.397E-03
 gam= 0.893 trial= 0.579  step= 0.570 mean= 0.579
 gam= 0.720 g(H,U,f)=  0.113E-01 0.133E-02 0.000E+00 ort(H,U,f) =-0.984E-03 0.849E-03 0.000E+00
CGA:  18    -0.240937498023E+04   -0.49050E-02   -0.49041E-02   480   0.126E-01-0.135E-03
 gam= 0.720 trial= 0.579  step= 0.548 mean= 0.579
 gam= 0.684 g(H,U,f)=  0.754E-02 0.110E-02 0.000E+00 ort(H,U,f) = 0.143E-02-0.138E-02 0.000E+00
CGA:  19    -0.240937841369E+04   -0.34335E-02   -0.34350E-02   480   0.864E-02 0.436E-04
 gam= 0.684 trial= 0.577  step= 0.494 mean= 0.577
 gam= 0.614 g(H,U,f)=  0.468E-02 0.630E-03 0.000E+00 ort(H,U,f) = 0.155E-02-0.148E-02 0.000E+00
CGA:  20    -0.240938055268E+04   -0.21390E-02   -0.21428E-02   480   0.531E-02 0.727E-04
 gam= 0.614 trial= 0.573  step= 0.512 mean= 0.573
 gam= 0.660 g(H,U,f)=  0.293E-02 0.575E-03 0.000E+00 ort(H,U,f) = 0.107E-02-0.102E-02 0.000E+00
CGA:  21    -0.240938191979E+04   -0.13671E-02   -0.13695E-02   480   0.350E-02 0.581E-04
 gam= 0.660 trial= 0.570  step= 0.480 mean= 0.570
 gam= 0.610 g(H,U,f)=  0.169E-02 0.444E-03 0.000E+00 ort(H,U,f) = 0.505E-03-0.479E-03 0.000E+00
CGA:  22    -0.240938276850E+04   -0.84871E-03   -0.84967E-03   480   0.214E-02 0.260E-04
 gam= 0.610 trial= 0.565  step= 0.505 mean= 0.565
 gam= 0.707 g(H,U,f)=  0.111E-02 0.401E-03 0.000E+00 ort(H,U,f) = 0.386E-04-0.288E-04 0.000E+00
CGA:  23    -0.240938331146E+04   -0.54296E-03   -0.54315E-03   480   0.151E-02 0.979E-05
 gam= 0.707 trial= 0.562  step= 0.502 mean= 0.562
 gam= 0.720 g(H,U,f)=  0.772E-03 0.316E-03 0.000E+00 ort(H,U,f) =-0.248E-03 0.250E-03 0.000E+00
CGA:  24    -0.240938369250E+04   -0.38104E-03   -0.38089E-03   480   0.109E-02 0.187E-05
 gam= 0.720 trial= 0.559  step= 0.532 mean= 0.559
 gam= 0.857 g(H,U,f)=  0.668E-03 0.264E-03 0.000E+00 ort(H,U,f) =-0.356E-03 0.358E-03 0.000E+00
CGA:  25    -0.240938398218E+04   -0.28969E-03   -0.28969E-03   480   0.932E-03 0.134E-05
 gam= 0.857 trial= 0.558  step= 0.568 mean= 0.558
 gam= 0.930 g(H,U,f)=  0.662E-03 0.205E-03 0.000E+00 ort(H,U,f) =-0.395E-03 0.395E-03 0.000E+00
CGA:  26    -0.240938424722E+04   -0.26504E-03   -0.26504E-03   480   0.867E-03 0.723E-07
 gam= 0.930 trial= 0.558  step= 0.587 mean= 0.558
 gam= 0.979 g(H,U,f)=  0.676E-03 0.172E-03 0.000E+00 ort(H,U,f) =-0.372E-03 0.369E-03 0.000E+00
CGA:  27    -0.240938450148E+04   -0.25425E-03   -0.25430E-03   480   0.848E-03-0.292E-05
 gam= 0.979 trial= 0.560  step= 0.597 mean= 0.560
 gam= 0.981 g(H,U,f)=  0.696E-03 0.136E-03 0.000E+00 ort(H,U,f) =-0.316E-03 0.313E-03 0.000E+00
CGA:  28    -0.240938475392E+04   -0.25244E-03   -0.25250E-03   480   0.832E-03-0.327E-05
 gam= 0.981 trial= 0.562  step= 0.571 mean= 0.562
 gam= 0.890 g(H,U,f)=  0.648E-03 0.928E-04 0.000E+00 ort(H,U,f) =-0.207E-03 0.205E-03 0.000E+00
CGA:  29    -0.240938499041E+04   -0.23649E-03   -0.23650E-03   480   0.741E-03-0.265E-05
 gam= 0.890 trial= 0.562  step= 0.524 mean= 0.562
 gam= 0.814 g(H,U,f)=  0.540E-03 0.633E-04 0.000E+00 ort(H,U,f) =-0.692E-04 0.696E-04 0.000E+00
CGA:  30    -0.240938518386E+04   -0.19345E-03   -0.19342E-03   480   0.603E-03 0.362E-06
 gam= 0.814 trial= 0.560  step= 0.506 mean= 0.560
 gam= 0.772 g(H,U,f)=  0.415E-03 0.504E-04 0.000E+00 ort(H,U,f) = 0.254E-04-0.231E-04 0.000E+00
CGA:  31    -0.240938533633E+04   -0.15247E-03   -0.15251E-03   480   0.466E-03 0.227E-05
 gam= 0.772 trial= 0.558  step= 0.463 mean= 0.558
 gam= 0.687 g(H,U,f)=  0.292E-03 0.280E-04 0.000E+00 ort(H,U,f) = 0.691E-04-0.674E-04 0.000E+00
CGA:  32    -0.240938544445E+04   -0.10813E-03   -0.10821E-03   480   0.320E-03 0.172E-05
 gam= 0.687 trial= 0.553  step= 0.465 mean= 0.553
 gam= 0.732 g(H,U,f)=  0.204E-03 0.304E-04 0.000E+00 ort(H,U,f) = 0.739E-04-0.743E-04 0.000E+00
CGA:  33    -0.240938551915E+04   -0.74694E-04   -0.74698E-04   480   0.234E-03-0.394E-06
 gam= 0.732 trial= 0.548  step= 0.454 mean= 0.548
 gam= 0.691 g(H,U,f)=  0.131E-03 0.304E-04 0.000E+00 ort(H,U,f) = 0.446E-04-0.470E-04 0.000E+00
CGA:  34    -0.240938557237E+04   -0.53217E-04   -0.53111E-04   480   0.162E-03-0.232E-05
 gam= 0.691 trial= 0.544  step= 0.454 mean= 0.544
 gam= 0.760 g(H,U,f)=  0.934E-04 0.296E-04 0.000E+00 ort(H,U,f) = 0.117E-04-0.141E-04 0.000E+00
CGA:  35    -0.240938560880E+04   -0.36435E-04   -0.36331E-04   480   0.123E-03-0.236E-05
 gam= 0.760 trial= 0.539  step= 0.479 mean= 0.539
 gam= 0.806 g(H,U,f)=  0.716E-04 0.275E-04 0.000E+00 ort(H,U,f) =-0.130E-04 0.118E-04 0.000E+00
CGA:  36    -0.240938563785E+04   -0.29051E-04   -0.29013E-04   480   0.991E-04-0.129E-05
 gam= 0.806 trial= 0.536  step= 0.472 mean= 0.536
 gam= 0.000 g(H,U,f)=  0.602E-04 0.229E-04 0.000E+00 ort(H,U,f) =-0.276E-04 0.279E-04 0.000E+00
SDA:  37    -0.240938566101E+04   -0.23157E-04   -0.23162E-04   480   0.831E-04 0.252E-06
 gam= 0.000 trial= 0.533  step= 1.385 mean= 0.533
 gam= 0.579 g(H,U,f)=  0.305E-04 0.176E-04 0.000E+00 ort(H,U,f) =-0.126E-04 0.156E-04 0.000E+00
CGA:  38    -0.240938571995E+04   -0.58946E-04   -0.57564E-04   480   0.482E-04 0.303E-05
 gam= 0.579 trial= 0.576  step= 1.162 mean= 0.576
 gam= 1.101 g(H,U,f)=  0.327E-04 0.203E-04 0.000E+00 ort(H,U,f) =-0.141E-04 0.151E-04 0.000E+00
CGA:  39    -0.240938574925E+04   -0.29300E-04   -0.29001E-04   480   0.530E-04 0.102E-05
 gam= 1.101 trial= 0.605  step= 1.010 mean= 0.605
 gam= 0.831 g(H,U,f)=  0.311E-04 0.129E-04 0.000E+00 ort(H,U,f) =-0.188E-04 0.185E-04 0.000E+00
CGA:  40    -0.240938577654E+04   -0.27281E-04   -0.27343E-04   480   0.441E-04-0.337E-06
 gam= 0.831 trial= 0.625  step= 1.110 mean= 0.625
 gam= 0.730 g(H,U,f)=  0.255E-04 0.666E-05 0.000E+00 ort(H,U,f) =-0.135E-04 0.135E-04 0.000E+00
CGA:  41    -0.240938580086E+04   -0.24325E-04   -0.24310E-04   480   0.322E-04 0.471E-07
 gam= 0.730 trial= 0.649  step= 1.038 mean= 0.649
 gam= 0.656 g(H,U,f)=  0.160E-04 0.508E-05 0.000E+00 ort(H,U,f) =-0.542E-05 0.538E-05 0.000E+00
CGA:  42    -0.240938581758E+04   -0.16718E-04   -0.16724E-04   480   0.211E-04-0.367E-07
 gam= 0.656 trial= 0.669  step= 0.944 mean= 0.669
 gam= 0.660 g(H,U,f)=  0.108E-04 0.312E-05 0.000E+00 ort(H,U,f) =-0.247E-05 0.250E-05 0.000E+00
CGA:  43    -0.240938582754E+04   -0.99631E-05   -0.99593E-05   480   0.139E-04 0.274E-07
 gam= 0.660 trial= 0.683  step= 1.007 mean= 0.683
   1 F= -.24093858E+04 E0= -.24093858E+04  d E =-.240939E+04  mag=     2.0000
 BRION: g(F)=  0.930E+00 g(S)=  0.000E+00
 bond charge predicted
 writing wavefunctions

 ----------------------------------------------------------------------------- 
|                                                                             |
|           W    W    AA    RRRRR   N    N  II  N    N   GGGG   !!!           |
|           W    W   A  A   R    R  NN   N  II  NN   N  G    G  !!!           |
|           W    W  A    A  R    R  N N  N  II  N N  N  G       !!!           |
|           W WW W  AAAAAA  RRRRR   N  N N  II  N  N N  G  GGG   !            |
|           WW  WW  A    A  R   R   N   NN  II  N   NN  G    G                |
|           W    W  A    A  R    R  N    N  II  N    N   GGGG   !!!           |
|                                                                             |
|      ALGO=A and IALGO=5X tend to fail with the tetrahedron method           |
|      (e.g. Bloechls method ISMEAR=-5 is not variational)                    |
|      please switch to IMSEAR=0-n, except for DOS calculations               |
|      For DOS calculations use IALGO=53 after preconverging with ISMEAR>=0   |
|          I HOPE YOU KNOW, WHAT YOU ARE  DOING                               |
|                                                                             |
 ----------------------------------------------------------------------------- 

       N       E                     dE             d eps       ncg     rms          ort
 gam= 0.000 g(H,U,f)=  0.243E+02 0.189E+01 0.000E+00 ort(H,U,f) = 0.000E+00 0.000E+00 0.000E+00
SDA:   1    -0.239700929622E+04    0.12377E+02    0.00000E+00   480   0.262E+02 0.000E+00
 gam= 0.000 trial= 0.699  step= 0.752 mean= 0.699
 gam= 0.277 g(H,U,f)=  0.565E+01 0.161E+01 0.000E+00 ort(H,U,f) = 0.284E+00-0.851E+00 0.000E+00
CGA:   2    -0.240685814642E+04   -0.98489E+01   -0.98496E+01   480   0.727E+01-0.566E+00
 gam= 0.277 trial= 0.702  step= 0.448 mean= 0.702
 gam= 0.344 g(H,U,f)=  0.220E+01 0.294E+00 0.000E+00 ort(H,U,f) = 0.227E+01 0.182E-01 0.000E+00
CGA:   3    -0.240793998282E+04   -0.10818E+01   -0.15911E+01   480   0.250E+01 0.229E+01
 gam= 0.344 trial= 0.689  step= 0.494 mean= 0.689
 gam= 0.491 g(H,U,f)=  0.102E+01 0.205E+00 0.000E+00 ort(H,U,f) = 0.538E+00 0.151E-02 0.000E+00
CGA:   4    -0.240869012738E+04   -0.75014E+00   -0.81192E+00   480   0.123E+01 0.539E+00
 gam= 0.491 trial= 0.679  step= 0.376 mean= 0.679
 gam= 0.496 g(H,U,f)=  0.552E+00 0.568E-01 0.000E+00 ort(H,U,f) = 0.131E+00 0.278E-01 0.000E+00
CGA:   5    -0.240892966912E+04   -0.23954E+00   -0.28060E+00   480   0.609E+00 0.159E+00
 gam= 0.496 trial= 0.664  step= 0.356 mean= 0.664
 gam= 0.648 g(H,U,f)=  0.355E+00 0.396E-01 0.000E+00 ort(H,U,f) = 0.122E+00-0.691E-02 0.000E+00
CGA:   6    -0.240902381653E+04   -0.94147E-01   -0.12237E+00   480   0.394E+00 0.115E+00
 gam= 0.648 trial= 0.649  step= 0.320 mean= 0.649
 gam= 0.783 g(H,U,f)=  0.282E+00 0.269E-01 0.000E+00 ort(H,U,f) = 0.136E+00-0.260E-02 0.000E+00
CGA:   7    -0.240906438606E+04   -0.40570E-01   -0.75060E-01   480   0.309E+00 0.134E+00
 gam= 0.783 trial= 0.632  step= 0.264 mean= 0.632
 gam= 0.861 g(H,U,f)=  0.244E+00 0.222E-01 0.000E+00 ort(H,U,f) = 0.129E+00-0.299E-02 0.000E+00
CGA:   8    -0.240908728961E+04   -0.22904E-01   -0.54542E-01   480   0.266E+00 0.126E+00
 gam= 0.861 trial= 0.614  step= 0.208 mean= 0.614
 gam= 0.990 g(H,U,f)=  0.241E+00 0.220E-01 0.000E+00 ort(H,U,f) = 0.132E+00 0.496E-03 0.000E+00
CGA:   9    -0.240908751449E+04   -0.22487E-03   -0.38962E-01   480   0.263E+00 0.132E+00
 gam= 0.990 trial= 0.593  step= 0.158 mean= 0.593
 gam= 0.000 g(H,U,f)=  0.293E+00 0.209E-01 0.000E+00 ort(H,U,f) = 0.174E+00 0.578E-02 0.000E+00
CGA:  10    -0.240905935645E+04    0.28158E-01   -0.31023E-01   480   0.314E+00 0.179E+00
 gam= 0.000 trial= 0.572  step= 0.801 mean= 0.572
 gam= 0.231 g(H,U,f)=  0.565E-01 0.159E-01 0.000E+00 ort(H,U,f) =-0.197E-02-0.616E-02 0.000E+00
CGA:  11    -0.240918449657E+04   -0.12514E+00   -0.12571E+00   480   0.724E-01-0.813E-02
 gam= 0.231 trial= 0.583  step= 0.429 mean= 0.583
 gam= 0.174 g(H,U,f)=  0.114E-01 0.118E-02 0.000E+00 ort(H,U,f) = 0.307E-02-0.165E-02 0.000E+00
CGA:  12    -0.240919952102E+04   -0.15024E-01   -0.15125E-01   480   0.126E-01 0.142E-02
 gam= 0.174 trial= 0.575  step= 0.728 mean= 0.575
 gam= 0.208 g(H,U,f)=  0.232E-02 0.308E-03 0.000E+00 ort(H,U,f) =-0.202E-03-0.110E-03 0.000E+00
CGA:  13    -0.240920418738E+04   -0.46664E-02   -0.46804E-02   480   0.263E-02-0.312E-03
 gam= 0.208 trial= 0.583  step= 0.542 mean= 0.583
 gam= 0.315 g(H,U,f)=  0.741E-03 0.854E-04 0.000E+00 ort(H,U,f) = 0.776E-04-0.811E-04 0.000E+00
CGA:  14    -0.240920488171E+04   -0.69433E-03   -0.69402E-03   480   0.826E-03-0.343E-05
 gam= 0.315 trial= 0.581  step= 0.736 mean= 0.581
 gam= 0.364 g(H,U,f)=  0.270E-03 0.308E-04 0.000E+00 ort(H,U,f) =-0.167E-06-0.112E-04 0.000E+00
CGA:  15    -0.240920518457E+04   -0.30286E-03   -0.30351E-03   480   0.301E-03-0.114E-04
 gam= 0.364 trial= 0.589  step= 0.595 mean= 0.589
 gam= 0.371 g(H,U,f)=  0.999E-04 0.116E-04 0.000E+00 ort(H,U,f) = 0.786E-05-0.100E-04 0.000E+00
CGA:  16    -0.240920527279E+04   -0.88226E-04   -0.88240E-04   480   0.112E-03-0.219E-05
 gam= 0.371 trial= 0.589  step= 0.647 mean= 0.589
 gam= 0.323 g(H,U,f)=  0.335E-04 0.252E-05 0.000E+00 ort(H,U,f) =-0.495E-07-0.105E-05 0.000E+00
CGA:  17    -0.240920530860E+04   -0.35805E-04   -0.35849E-04   480   0.360E-04-0.110E-05
 gam= 0.323 trial= 0.592  step= 0.683 mean= 0.592
 gam= 0.459 g(H,U,f)=  0.147E-04 0.177E-05 0.000E+00 ort(H,U,f) = 0.733E-06-0.997E-06 0.000E+00
CGA:  18    -0.240920532074E+04   -0.12142E-04   -0.12157E-04   480   0.165E-04-0.264E-06
 gam= 0.459 trial= 0.597  step= 0.623 mean= 0.597
 gam= 0.406 g(H,U,f)=  0.621E-05 0.489E-06 0.000E+00 ort(H,U,f) = 0.379E-06-0.413E-06 0.000E+00
CGA:  19    -0.240920532585E+04   -0.51113E-05   -0.51123E-05   480   0.670E-05-0.334E-07
 gam= 0.406 trial= 0.598  step= 0.716 mean= 0.598
   2 F= -.24092053E+04 E0= -.24092053E+04  d E =0.180502E+00  mag=     2.0000
 BRION: g(F)=  0.311E+01 g(S)=  0.000E+00 retain N=  1 mean eig= 0.34
 eig:   0.337
 bond charge predicted
 writing wavefunctions

 ----------------------------------------------------------------------------- 
|                                                                             |
|           W    W    AA    RRRRR   N    N  II  N    N   GGGG   !!!           |
|           W    W   A  A   R    R  NN   N  II  NN   N  G    G  !!!           |
|           W    W  A    A  R    R  N N  N  II  N N  N  G       !!!           |
|           W WW W  AAAAAA  RRRRR   N  N N  II  N  N N  G  GGG   !            |
|           WW  WW  A    A  R   R   N   NN  II  N   NN  G    G                |
|           W    W  A    A  R    R  N    N  II  N    N   GGGG   !!!           |
|                                                                             |
|      ALGO=A and IALGO=5X tend to fail with the tetrahedron method           |
|      (e.g. Bloechls method ISMEAR=-5 is not variational)                    |
|      please switch to IMSEAR=0-n, except for DOS calculations               |
|      For DOS calculations use IALGO=53 after preconverging with ISMEAR>=0   |
|          I HOPE YOU KNOW, WHAT YOU ARE  DOING                               |
|                                                                             |
 ----------------------------------------------------------------------------- 

       N       E                     dE             d eps       ncg     rms          ort
 gam= 0.000 g(H,U,f)=  0.104E+02 0.570E+00 0.000E+00 ort(H,U,f) = 0.000E+00 0.000E+00 0.000E+00
SDA:   1    -0.240455064469E+04    0.46547E+01    0.00000E+00   480   0.110E+02 0.000E+00
 gam= 0.000 trial= 0.604  step= 0.797 mean= 0.604
 gam= 0.188 g(H,U,f)=  0.181E+01 0.257E+00 0.000E+00 ort(H,U,f) =-0.426E+00-0.235E+00 0.000E+00
CGA:   2    -0.240886538582E+04   -0.43147E+01   -0.43672E+01   480   0.206E+01-0.662E+00
 gam= 0.188 trial= 0.613  step= 0.598 mean= 0.613
 gam= 0.204 g(H,U,f)=  0.374E+00 0.478E-01 0.000E+00 ort(H,U,f) = 0.754E-01-0.305E-01 0.000E+00
CGA:   3    -0.240944467652E+04   -0.57929E+00   -0.57990E+00   480   0.421E+00 0.449E-01
 gam= 0.204 trial= 0.613  step= 0.641 mean= 0.613
 gam= 0.314 g(H,U,f)=  0.120E+00 0.127E-01 0.000E+00 ort(H,U,f) = 0.456E-02-0.672E-02 0.000E+00
CGA:   4    -0.240958272951E+04   -0.13805E+00   -0.13809E+00   480   0.133E+00-0.216E-02
 gam= 0.314 trial= 0.614  step= 0.616 mean= 0.614
 gam= 0.292 g(H,U,f)=  0.361E-01 0.251E-02 0.000E+00 ort(H,U,f) = 0.257E-02-0.192E-02 0.000E+00
CGA:   5    -0.240962336028E+04   -0.40631E-01   -0.40629E-01   480   0.387E-01 0.657E-03
 gam= 0.292 trial= 0.614  step= 0.646 mean= 0.614
 gam= 0.376 g(H,U,f)=  0.134E-01 0.112E-02 0.000E+00 ort(H,U,f) = 0.276E-03-0.599E-03 0.000E+00
CGA:   6    -0.240963590183E+04   -0.12542E-01   -0.12549E-01   480   0.145E-01-0.323E-03
 gam= 0.376 trial= 0.616  step= 0.631 mean= 0.616
 gam= 0.361 g(H,U,f)=  0.488E-02 0.372E-03 0.000E+00 ort(H,U,f) = 0.131E-04-0.123E-03 0.000E+00
CGA:   7    -0.240964044976E+04   -0.45479E-02   -0.45495E-02   480   0.525E-02-0.110E-03
 gam= 0.361 trial= 0.617  step= 0.665 mean= 0.617
 gam= 0.395 g(H,U,f)=  0.189E-02 0.182E-03 0.000E+00 ort(H,U,f) = 0.621E-06-0.320E-04 0.000E+00
CGA:   8    -0.240964218181E+04   -0.17321E-02   -0.17330E-02   480   0.208E-02-0.313E-04
 gam= 0.395 trial= 0.619  step= 0.619 mean= 0.619
 gam= 0.393 g(H,U,f)=  0.768E-03 0.484E-04 0.000E+00 ort(H,U,f) = 0.296E-04-0.375E-04 0.000E+00
CGA:   9    -0.240964282106E+04   -0.63925E-03   -0.63925E-03   480   0.816E-03-0.788E-05
 gam= 0.393 trial= 0.619  step= 0.680 mean= 0.619
 gam= 0.403 g(H,U,f)=  0.301E-03 0.277E-04 0.000E+00 ort(H,U,f) =-0.915E-06-0.566E-05 0.000E+00
CGA:  10    -0.240964309735E+04   -0.27629E-03   -0.27655E-03   480   0.329E-03-0.658E-05
 gam= 0.403 trial= 0.622  step= 0.624 mean= 0.622
 gam= 0.477 g(H,U,f)=  0.143E-03 0.134E-04 0.000E+00 ort(H,U,f) =-0.652E-06-0.695E-06 0.000E+00
CGA:  11    -0.240964319913E+04   -0.10177E-03   -0.10178E-03   480   0.157E-03-0.135E-05
 gam= 0.477 trial= 0.622  step= 0.625 mean= 0.622
 gam= 0.436 g(H,U,f)=  0.648E-04 0.361E-05 0.000E+00 ort(H,U,f) =-0.135E-05 0.919E-06 0.000E+00
CGA:  12    -0.240964324796E+04   -0.48832E-04   -0.48833E-04   480   0.684E-04-0.432E-06
 gam= 0.436 trial= 0.622  step= 0.639 mean= 0.622
 gam= 0.512 g(H,U,f)=  0.321E-04 0.292E-05 0.000E+00 ort(H,U,f) = 0.179E-06-0.515E-06 0.000E+00
CGA:  13    -0.240964326977E+04   -0.21811E-04   -0.21814E-04   480   0.350E-04-0.336E-06
 gam= 0.512 trial= 0.623  step= 0.597 mean= 0.623
 gam= 0.468 g(H,U,f)=  0.152E-04 0.120E-05 0.000E+00 ort(H,U,f) =-0.519E-06 0.228E-06 0.000E+00
CGA:  14    -0.240964328018E+04   -0.10409E-04   -0.10404E-04   480   0.164E-04-0.291E-06
 gam= 0.468 trial= 0.622  step= 0.633 mean= 0.622
 gam= 0.496 g(H,U,f)=  0.756E-05 0.581E-06 0.000E+00 ort(H,U,f) =-0.520E-06 0.377E-06 0.000E+00
CGA:  15    -0.240964328533E+04   -0.51491E-05   -0.51502E-05   480   0.814E-05-0.143E-06
 gam= 0.496 trial= 0.622  step= 0.599 mean= 0.622
   3 F= -.24096433E+04 E0= -.24096433E+04  d E =-.437959E+00  mag=     2.0000
 BRION: g(F)=  0.182E+00 g(S)=  0.000E+00 retain N=  1 mean eig= 0.28
 eig:   0.284
 bond charge predicted
 writing wavefunctions

 ----------------------------------------------------------------------------- 
|                                                                             |
|           W    W    AA    RRRRR   N    N  II  N    N   GGGG   !!!           |
|           W    W   A  A   R    R  NN   N  II  NN   N  G    G  !!!           |
|           W    W  A    A  R    R  N N  N  II  N N  N  G       !!!           |
|           W WW W  AAAAAA  RRRRR   N  N N  II  N  N N  G  GGG   !            |
|           WW  WW  A    A  R   R   N   NN  II  N   NN  G    G                |
|           W    W  A    A  R    R  N    N  II  N    N   GGGG   !!!           |
|                                                                             |
|      ALGO=A and IALGO=5X tend to fail with the tetrahedron method           |
|      (e.g. Bloechls method ISMEAR=-5 is not variational)                    |
|      please switch to IMSEAR=0-n, except for DOS calculations               |
|      For DOS calculations use IALGO=53 after preconverging with ISMEAR>=0   |
|          I HOPE YOU KNOW, WHAT YOU ARE  DOING                               |
|                                                                             |
 ----------------------------------------------------------------------------- 

       N       E                     dE             d eps       ncg     rms          ort
 gam= 0.000 g(H,U,f)=  0.217E+01 0.169E+00 0.000E+00 ort(H,U,f) = 0.000E+00 0.000E+00 0.000E+00
SDA:   1    -0.240861066937E+04    0.10326E+01    0.00000E+00   480   0.233E+01 0.000E+00
 gam= 0.000 trial= 0.621  step= 0.703 mean= 0.621
 gam= 0.290 g(H,U,f)=  0.537E+00 0.140E+00 0.000E+00 ort(H,U,f) = 0.827E-01-0.103E+00 0.000E+00
CGA:   2    -0.240943047746E+04   -0.81981E+00   -0.81999E+00   480   0.677E+00-0.200E-01
 gam= 0.290 trial= 0.625  step= 0.517 mean= 0.625
 gam= 0.172 g(H,U,f)=  0.983E-01 0.184E-01 0.000E+00 ort(H,U,f) = 0.455E-01-0.158E-01 0.000E+00
CGA:   3    -0.240960097578E+04   -0.17050E+00   -0.17337E+00   480   0.117E+00 0.297E-01
 gam= 0.172 trial= 0.620  step= 0.591 mean= 0.620
 gam= 0.219 g(H,U,f)=  0.230E-01 0.262E-02 0.000E+00 ort(H,U,f) = 0.107E-02-0.962E-03 0.000E+00
CGA:   4    -0.240963698389E+04   -0.36008E-01   -0.36009E-01   480   0.256E-01 0.104E-03
 gam= 0.219 trial= 0.618  step= 0.704 mean= 0.618
 gam= 0.255 g(H,U,f)=  0.594E-02 0.584E-03 0.000E+00 ort(H,U,f) =-0.225E-04-0.161E-03 0.000E+00
CGA:   5    -0.240964599399E+04   -0.90101E-02   -0.90176E-02   480   0.653E-02-0.184E-03
 gam= 0.255 trial= 0.623  step= 0.686 mean= 0.623
 gam= 0.412 g(H,U,f)=  0.229E-02 0.397E-03 0.000E+00 ort(H,U,f) = 0.223E-03-0.246E-03 0.000E+00
CGA:   6    -0.240964821630E+04   -0.22223E-02   -0.22232E-02   480   0.269E-02-0.232E-04
 gam= 0.412 trial= 0.626  step= 0.616 mean= 0.626
 gam= 0.338 g(H,U,f)=  0.807E-03 0.102E-03 0.000E+00 ort(H,U,f) = 0.457E-04-0.575E-04 0.000E+00
CGA:   7    -0.240964904054E+04   -0.82423E-03   -0.82410E-03   480   0.909E-03-0.117E-04
 gam= 0.338 trial= 0.625  step= 0.727 mean= 0.625
 gam= 0.321 g(H,U,f)=  0.264E-03 0.280E-04 0.000E+00 ort(H,U,f) =-0.650E-05 0.278E-05 0.000E+00
CGA:   8    -0.240964936903E+04   -0.32849E-03   -0.32869E-03   480   0.292E-03-0.372E-05
 gam= 0.321 trial= 0.630  step= 0.703 mean= 0.630
 gam= 0.381 g(H,U,f)=  0.980E-04 0.133E-04 0.000E+00 ort(H,U,f) = 0.405E-05-0.487E-05 0.000E+00
CGA:   9    -0.240964947113E+04   -0.10210E-03   -0.10213E-03   480   0.111E-03-0.813E-06
 gam= 0.381 trial= 0.634  step= 0.695 mean= 0.634
 gam= 0.389 g(H,U,f)=  0.372E-04 0.619E-05 0.000E+00 ort(H,U,f) = 0.146E-05-0.168E-05 0.000E+00
CGA:  10    -0.240964950970E+04   -0.38574E-04   -0.38585E-04   480   0.433E-04-0.219E-06
 gam= 0.389 trial= 0.637  step= 0.704 mean= 0.637
 gam= 0.438 g(H,U,f)=  0.165E-04 0.245E-05 0.000E+00 ort(H,U,f) =-0.659E-06 0.646E-06 0.000E+00
CGA:  11    -0.240964952493E+04   -0.15226E-04   -0.15227E-04   480   0.190E-04-0.131E-07
 gam= 0.438 trial= 0.640  step= 0.746 mean= 0.640
 gam= 0.433 g(H,U,f)=  0.730E-05 0.911E-06 0.000E+00 ort(H,U,f) =-0.780E-06 0.571E-06 0.000E+00
CGA:  12    -0.240964953199E+04   -0.70668E-05   -0.70782E-05   480   0.821E-05-0.209E-06
 gam= 0.433 trial= 0.646  step= 0.811 mean= 0.646
   4 F= -.24096495E+04 E0= -.24096495E+04  d E =-.624667E-02  mag=     2.0000
 BRION: g(F)=  0.198E+00 g(S)=  0.000E+00 retain N=  2 mean eig= 0.14
 eig:   0.189  0.097
 bond charge predicted
 writing wavefunctions

 ----------------------------------------------------------------------------- 
|                                                                             |
|           W    W    AA    RRRRR   N    N  II  N    N   GGGG   !!!           |
|           W    W   A  A   R    R  NN   N  II  NN   N  G    G  !!!           |
|           W    W  A    A  R    R  N N  N  II  N N  N  G       !!!           |
|           W WW W  AAAAAA  RRRRR   N  N N  II  N  N N  G  GGG   !            |
|           WW  WW  A    A  R   R   N   NN  II  N   NN  G    G                |
|           W    W  A    A  R    R  N    N  II  N    N   GGGG   !!!           |
|                                                                             |
|      ALGO=A and IALGO=5X tend to fail with the tetrahedron method           |
|      (e.g. Bloechls method ISMEAR=-5 is not variational)                    |
|      please switch to IMSEAR=0-n, except for DOS calculations               |
|      For DOS calculations use IALGO=53 after preconverging with ISMEAR>=0   |
|          I HOPE YOU KNOW, WHAT YOU ARE  DOING                               |
|                                                                             |
 ----------------------------------------------------------------------------- 

       N       E                     dE             d eps       ncg     rms          ort
 gam= 0.000 g(H,U,f)=  0.719E+00 0.374E-01 0.000E+00 ort(H,U,f) = 0.000E+00 0.000E+00 0.000E+00
SDA:   1    -0.240932601334E+04    0.32351E+00    0.00000E+00   480   0.756E+00 0.000E+00
 gam= 0.000 trial= 0.654  step= 0.796 mean= 0.654
 gam= 0.203 g(H,U,f)=  0.129E+00 0.242E-01 0.000E+00 ort(H,U,f) = 0.942E-02-0.192E-01 0.000E+00
CGA:   2    -0.240962648304E+04   -0.30047E+00   -0.30099E+00   480   0.154E+00-0.975E-02
 gam= 0.203 trial= 0.661  step= 0.572 mean= 0.661
 gam= 0.167 g(H,U,f)=  0.214E-01 0.435E-02 0.000E+00 ort(H,U,f) = 0.632E-02-0.452E-02 0.000E+00
CGA:   3    -0.240966970231E+04   -0.43219E-01   -0.43381E-01   480   0.257E-01 0.180E-02
 gam= 0.167 trial= 0.657  step= 0.575 mean= 0.657
 gam= 0.225 g(H,U,f)=  0.498E-02 0.793E-03 0.000E+00 ort(H,U,f) = 0.726E-03-0.605E-03 0.000E+00
CGA:   4    -0.240967718163E+04   -0.74793E-02   -0.74866E-02   480   0.578E-02 0.122E-03
 gam= 0.225 trial= 0.653  step= 0.669 mean= 0.653
 gam= 0.253 g(H,U,f)=  0.134E-02 0.123E-03 0.000E+00 ort(H,U,f) = 0.110E-03-0.114E-03 0.000E+00
CGA:   5    -0.240967912298E+04   -0.19413E-02   -0.19414E-02   480   0.146E-02-0.333E-05
 gam= 0.253 trial= 0.653  step= 0.772 mean= 0.653
 gam= 0.351 g(H,U,f)=  0.459E-03 0.536E-04 0.000E+00 ort(H,U,f) = 0.288E-04-0.347E-04 0.000E+00
CGA:   6    -0.240967968679E+04   -0.56381E-03   -0.56414E-03   480   0.512E-03-0.593E-05
 gam= 0.351 trial= 0.659  step= 0.772 mean= 0.659
 gam= 0.386 g(H,U,f)=  0.173E-03 0.244E-04 0.000E+00 ort(H,U,f) = 0.131E-04-0.144E-04 0.000E+00
CGA:   7    -0.240967988364E+04   -0.19685E-03   -0.19694E-03   480   0.198E-03-0.132E-05
 gam= 0.386 trial= 0.665  step= 0.733 mean= 0.665
 gam= 0.317 g(H,U,f)=  0.559E-04 0.677E-05 0.000E+00 ort(H,U,f) = 0.460E-05-0.444E-05 0.000E+00
CGA:   8    -0.240967995587E+04   -0.72232E-04   -0.72223E-04   480   0.627E-04 0.153E-06
 gam= 0.317 trial= 0.668  step= 0.726 mean= 0.668
 gam= 0.373 g(H,U,f)=  0.203E-04 0.310E-05 0.000E+00 ort(H,U,f) = 0.331E-05-0.307E-05 0.000E+00
CGA:   9    -0.240967997867E+04   -0.22803E-04   -0.22796E-04   480   0.234E-04 0.240E-06
 gam= 0.373 trial= 0.671  step= 0.710 mean= 0.671
 gam= 0.370 g(H,U,f)=  0.774E-05 0.939E-06 0.000E+00 ort(H,U,f) = 0.782E-06-0.825E-06 0.000E+00
CGA:  10    -0.240967998701E+04   -0.83406E-05   -0.83414E-05   480   0.868E-05-0.438E-07
 gam= 0.370 trial= 0.673  step= 0.877 mean= 0.673
   5 F= -.24096800E+04 E0= -.24096800E+04  d E =-.304550E-01  mag=     2.0000
 BRION: g(F)=  0.176E-01 g(S)=  0.000E+00 retain N=  2 mean eig= 2.22
 eig:   0.296  4.145
 bond charge predicted
 writing wavefunctions

 ----------------------------------------------------------------------------- 
|                                                                             |
|           W    W    AA    RRRRR   N    N  II  N    N   GGGG   !!!           |
|           W    W   A  A   R    R  NN   N  II  NN   N  G    G  !!!           |
|           W    W  A    A  R    R  N N  N  II  N N  N  G       !!!           |
|           W WW W  AAAAAA  RRRRR   N  N N  II  N  N N  G  GGG   !            |
|           WW  WW  A    A  R   R   N   NN  II  N   NN  G    G                |
|           W    W  A    A  R    R  N    N  II  N    N   GGGG   !!!           |
|                                                                             |
|      ALGO=A and IALGO=5X tend to fail with the tetrahedron method           |
|      (e.g. Bloechls method ISMEAR=-5 is not variational)                    |
|      please switch to IMSEAR=0-n, except for DOS calculations               |
|      For DOS calculations use IALGO=53 after preconverging with ISMEAR>=0   |
|          I HOPE YOU KNOW, WHAT YOU ARE  DOING                               |
|                                                                             |
 ----------------------------------------------------------------------------- 

       N       E                     dE             d eps       ncg     rms          ort
 gam= 0.000 g(H,U,f)=  0.184E+00 0.148E-01 0.000E+00 ort(H,U,f) = 0.000E+00 0.000E+00 0.000E+00
SDA:   1    -0.240959337193E+04    0.86607E-01    0.00000E+00   480   0.198E+00 0.000E+00
 gam= 0.000 trial= 0.683  step= 0.699 mean= 0.683
 gam= 0.315 g(H,U,f)=  0.486E-01 0.139E-01 0.000E+00 ort(H,U,f) = 0.101E-01-0.994E-02 0.000E+00
CGA:   2    -0.240966270815E+04   -0.69336E-01   -0.69333E-01   480   0.624E-01 0.155E-03
 gam= 0.315 trial= 0.684  step= 0.533 mean= 0.684
 gam= 0.137 g(H,U,f)=  0.724E-02 0.134E-02 0.000E+00 ort(H,U,f) = 0.259E-02-0.156E-02 0.000E+00
CGA:   3    -0.240967917128E+04   -0.16463E-01   -0.16637E-01   480   0.858E-02 0.103E-02
 gam= 0.137 trial= 0.677  step= 0.614 mean= 0.677
 gam= 0.193 g(H,U,f)=  0.147E-02 0.188E-03 0.000E+00 ort(H,U,f) = 0.138E-03-0.124E-03 0.000E+00
CGA:   4    -0.240968184813E+04   -0.26769E-02   -0.26777E-02   480   0.166E-02 0.142E-04
 gam= 0.193 trial= 0.673  step= 0.765 mean= 0.673
 gam= 0.223 g(H,U,f)=  0.348E-03 0.216E-04 0.000E+00 ort(H,U,f) = 0.189E-04-0.215E-04 0.000E+00
CGA:   5    -0.240968248309E+04   -0.63496E-03   -0.63504E-03   480   0.369E-03-0.258E-05
 gam= 0.223 trial= 0.678  step= 0.927 mean= 0.678
 gam= 0.352 g(H,U,f)=  0.114E-03 0.163E-04 0.000E+00 ort(H,U,f) = 0.590E-05-0.761E-05 0.000E+00
CGA:   6    -0.240968265378E+04   -0.17069E-03   -0.17086E-03   480   0.130E-03-0.171E-05
 gam= 0.352 trial= 0.691  step= 0.781 mean= 0.691
 gam= 0.416 g(H,U,f)=  0.444E-04 0.971E-05 0.000E+00 ort(H,U,f) = 0.578E-05-0.587E-05 0.000E+00
CGA:   7    -0.240968270431E+04   -0.50529E-04   -0.50537E-04   480   0.542E-04-0.930E-07
 gam= 0.416 trial= 0.695  step= 0.642 mean= 0.695
 gam= 0.306 g(H,U,f)=  0.148E-04 0.179E-05 0.000E+00 ort(H,U,f) = 0.183E-05-0.190E-05 0.000E+00
CGA:   8    -0.240968272168E+04   -0.17365E-04   -0.17363E-04   480   0.166E-04-0.699E-07
 gam= 0.306 trial= 0.692  step= 0.782 mean= 0.692
 gam= 0.322 g(H,U,f)=  0.489E-05 0.443E-06 0.000E+00 ort(H,U,f) = 0.521E-06-0.457E-06 0.000E+00
CGA:   9    -0.240968272815E+04   -0.64760E-05   -0.64731E-05   480   0.533E-05 0.640E-07
 gam= 0.322 trial= 0.697  step= 0.890 mean= 0.697
   6 F= -.24096827E+04 E0= -.24096827E+04  d E =-.274114E-02  mag=     2.0000
 BRION: g(F)=  0.135E-01 g(S)=  0.000E+00 retain N=  3 mean eig= 2.06
 eig:   0.147  0.147  5.900
 bond charge predicted
 writing wavefunctions

 ----------------------------------------------------------------------------- 
|                                                                             |
|           W    W    AA    RRRRR   N    N  II  N    N   GGGG   !!!           |
|           W    W   A  A   R    R  NN   N  II  NN   N  G    G  !!!           |
|           W    W  A    A  R    R  N N  N  II  N N  N  G       !!!           |
|           W WW W  AAAAAA  RRRRR   N  N N  II  N  N N  G  GGG   !            |
|           WW  WW  A    A  R   R   N   NN  II  N   NN  G    G                |
|           W    W  A    A  R    R  N    N  II  N    N   GGGG   !!!           |
|                                                                             |
|      ALGO=A and IALGO=5X tend to fail with the tetrahedron method           |
|      (e.g. Bloechls method ISMEAR=-5 is not variational)                    |
|      please switch to IMSEAR=0-n, except for DOS calculations               |
|      For DOS calculations use IALGO=53 after preconverging with ISMEAR>=0   |
|          I HOPE YOU KNOW, WHAT YOU ARE  DOING                               |
|                                                                             |
 ----------------------------------------------------------------------------- 

       N       E                     dE             d eps       ncg     rms          ort
 gam= 0.000 g(H,U,f)=  0.620E-01 0.389E-02 0.000E+00 ort(H,U,f) = 0.000E+00 0.000E+00 0.000E+00
SDA:   1    -0.240965393280E+04    0.28789E-01    0.00000E+00   480   0.659E-01 0.000E+00
 gam= 0.000 trial= 0.707  step= 0.776 mean= 0.707
 gam= 0.244 g(H,U,f)=  0.134E-01 0.273E-02 0.000E+00 ort(H,U,f) = 0.218E-02-0.221E-02 0.000E+00
CGA:   2    -0.240967949393E+04   -0.25561E-01   -0.25559E-01   480   0.161E-01-0.339E-04
 gam= 0.244 trial= 0.710  step= 0.563 mean= 0.710
 gam= 0.160 g(H,U,f)=  0.210E-02 0.478E-03 0.000E+00 ort(H,U,f) = 0.543E-03-0.446E-03 0.000E+00
CGA:   3    -0.240968401278E+04   -0.45189E-02   -0.45324E-02   480   0.258E-02 0.967E-04
 gam= 0.160 trial= 0.703  step= 0.555 mean= 0.703
 gam= 0.201 g(H,U,f)=  0.453E-03 0.638E-04 0.000E+00 ort(H,U,f) = 0.732E-04-0.717E-04 0.000E+00
CGA:   4    -0.240968473263E+04   -0.71984E-03   -0.71996E-03   480   0.517E-03 0.149E-05
 gam= 0.201 trial= 0.695  step= 0.756 mean= 0.695
 gam= 0.235 g(H,U,f)=  0.110E-03 0.110E-04 0.000E+00 ort(H,U,f) = 0.810E-05-0.827E-05 0.000E+00
CGA:   5    -0.240968492827E+04   -0.19564E-03   -0.19564E-03   480   0.121E-03-0.171E-06
 gam= 0.235 trial= 0.698  step= 0.914 mean= 0.698
 gam= 0.338 g(H,U,f)=  0.368E-04 0.421E-05 0.000E+00 ort(H,U,f) = 0.245E-05-0.235E-05 0.000E+00
CGA:   6    -0.240968498372E+04   -0.55451E-04   -0.55438E-04   480   0.410E-04 0.101E-06
 gam= 0.338 trial= 0.709  step= 0.877 mean= 0.709
 gam= 0.377 g(H,U,f)=  0.136E-04 0.189E-05 0.000E+00 ort(H,U,f) = 0.323E-06-0.328E-06 0.000E+00
CGA:   7    -0.240968500171E+04   -0.17986E-04   -0.17986E-04   480   0.155E-04-0.467E-08
 gam= 0.377 trial= 0.718  step= 0.809 mean= 0.718
 gam= 0.379 g(H,U,f)=  0.518E-05 0.685E-06 0.000E+00 ort(H,U,f) = 0.283E-06-0.325E-06 0.000E+00
CGA:   8    -0.240968500796E+04   -0.62530E-05   -0.62551E-05   480   0.587E-05-0.427E-07
 gam= 0.379 trial= 0.722  step= 0.882 mean= 0.722
   7 F= -.24096850E+04 E0= -.24096850E+04  d E =-.227981E-02  mag=     2.0000
 BRION: g(F)=  0.319E-02 g(S)=  0.000E+00 retain N=  3 mean eig= 1.86
 eig:   0.244  0.244  5.084
 bond charge predicted
 writing wavefunctions

 ----------------------------------------------------------------------------- 
|                                                                             |
|           W    W    AA    RRRRR   N    N  II  N    N   GGGG   !!!           |
|           W    W   A  A   R    R  NN   N  II  NN   N  G    G  !!!           |
|           W    W  A    A  R    R  N N  N  II  N N  N  G       !!!           |
|           W WW W  AAAAAA  RRRRR   N  N N  II  N  N N  G  GGG   !            |
|           WW  WW  A    A  R   R   N   NN  II  N   NN  G    G                |
|           W    W  A    A  R    R  N    N  II  N    N   GGGG   !!!           |
|                                                                             |
|      ALGO=A and IALGO=5X tend to fail with the tetrahedron method           |
|      (e.g. Bloechls method ISMEAR=-5 is not variational)                    |
|      please switch to IMSEAR=0-n, except for DOS calculations               |
|      For DOS calculations use IALGO=53 after preconverging with ISMEAR>=0   |
|          I HOPE YOU KNOW, WHAT YOU ARE  DOING                               |
|                                                                             |
 ----------------------------------------------------------------------------- 

       N       E                     dE             d eps       ncg     rms          ort
 gam= 0.000 g(H,U,f)=  0.262E-01 0.203E-02 0.000E+00 ort(H,U,f) = 0.000E+00 0.000E+00 0.000E+00
SDA:   1    -0.240967239535E+04    0.12606E-01    0.00000E+00   480   0.282E-01 0.000E+00
 gam= 0.000 trial= 0.730  step= 0.740 mean= 0.730
 gam= 0.363 g(H,U,f)=  0.769E-02 0.255E-02 0.000E+00 ort(H,U,f) = 0.160E-02-0.158E-02 0.000E+00
CGA:   2    -0.240968282533E+04   -0.10430E-01   -0.10430E-01   480   0.102E-01 0.232E-04
 gam= 0.363 trial= 0.731  step= 0.491 mean= 0.731
 gam= 0.107 g(H,U,f)=  0.969E-03 0.127E-03 0.000E+00 ort(H,U,f) = 0.313E-03-0.223E-03 0.000E+00
CGA:   3    -0.240968531601E+04   -0.24907E-02   -0.25174E-02   480   0.110E-02 0.892E-04
 gam= 0.107 trial= 0.719  step= 0.751 mean= 0.719
 gam= 0.195 g(H,U,f)=  0.196E-03 0.170E-04 0.000E+00 ort(H,U,f) = 0.108E-04-0.124E-04 0.000E+00
CGA:   4    -0.240968573121E+04   -0.41520E-03   -0.41523E-03   480   0.213E-03-0.158E-05
 gam= 0.195 trial= 0.720  step= 0.825 mean= 0.720
 gam= 0.278 g(H,U,f)=  0.550E-04 0.432E-05 0.000E+00 ort(H,U,f) = 0.584E-05-0.568E-05 0.000E+00
CGA:   5    -0.240968581906E+04   -0.87854E-04   -0.87840E-04   480   0.593E-04 0.156E-06
 gam= 0.278 trial= 0.725  step= 0.885 mean= 0.725
 gam= 0.348 g(H,U,f)=  0.183E-04 0.231E-05 0.000E+00 ort(H,U,f) = 0.157E-05-0.159E-05 0.000E+00
CGA:   6    -0.240968584535E+04   -0.26286E-04   -0.26288E-04   480   0.206E-04-0.213E-07
 gam= 0.348 trial= 0.733  step= 0.832 mean= 0.733
 gam= 0.379 g(H,U,f)=  0.669E-05 0.114E-05 0.000E+00 ort(H,U,f) = 0.545E-06-0.663E-06 0.000E+00
CGA:   7    -0.240968585392E+04   -0.85762E-05   -0.85821E-05   480   0.783E-05-0.117E-06
 gam= 0.379 trial= 0.738  step= 0.723 mean= 0.738
   8 F= -.24096859E+04 E0= -.24096859E+04  d E =-.845965E-03  mag=     2.0000
 BRION: g(F)=  0.150E-02 g(S)=  0.000E+00 retain N=  2 mean eig= 0.47
 eig:   0.217  0.717
 bond charge predicted
 writing wavefunctions

 ----------------------------------------------------------------------------- 
|                                                                             |
|           W    W    AA    RRRRR   N    N  II  N    N   GGGG   !!!           |
|           W    W   A  A   R    R  NN   N  II  NN   N  G    G  !!!           |
|           W    W  A    A  R    R  N N  N  II  N N  N  G       !!!           |
|           W WW W  AAAAAA  RRRRR   N  N N  II  N  N N  G  GGG   !            |
|           WW  WW  A    A  R   R   N   NN  II  N   NN  G    G                |
|           W    W  A    A  R    R  N    N  II  N    N   GGGG   !!!           |
|                                                                             |
|      ALGO=A and IALGO=5X tend to fail with the tetrahedron method           |
|      (e.g. Bloechls method ISMEAR=-5 is not variational)                    |
|      please switch to IMSEAR=0-n, except for DOS calculations               |
|      For DOS calculations use IALGO=53 after preconverging with ISMEAR>=0   |
|          I HOPE YOU KNOW, WHAT YOU ARE  DOING                               |
|                                                                             |
 ----------------------------------------------------------------------------- 

       N       E                     dE             d eps       ncg     rms          ort
 gam= 0.000 g(H,U,f)=  0.113E-01 0.725E-03 0.000E+00 ort(H,U,f) = 0.000E+00 0.000E+00 0.000E+00
SDA:   1    -0.240968035901E+04    0.54863E-02    0.00000E+00   480   0.120E-01 0.000E+00
 gam= 0.000 trial= 0.738  step= 0.806 mean= 0.738
 gam= 0.270 g(H,U,f)=  0.253E-02 0.713E-03 0.000E+00 ort(H,U,f) = 0.433E-03-0.438E-03 0.000E+00
CGA:   2    -0.240968520655E+04   -0.48475E-02   -0.48475E-02   480   0.324E-02-0.440E-05
 gam= 0.270 trial= 0.741  step= 0.511 mean= 0.741
 gam= 0.171 g(H,U,f)=  0.462E-03 0.940E-04 0.000E+00 ort(H,U,f) = 0.142E-03-0.134E-03 0.000E+00
CGA:   3    -0.240968603180E+04   -0.82525E-03   -0.82807E-03   480   0.556E-03 0.758E-05
 gam= 0.171 trial= 0.730  step= 0.611 mean= 0.730
 gam= 0.188 g(H,U,f)=  0.944E-04 0.103E-04 0.000E+00 ort(H,U,f) = 0.102E-04-0.100E-04 0.000E+00
CGA:   4    -0.240968620194E+04   -0.17014E-03   -0.17016E-03   480   0.105E-03 0.239E-06
 gam= 0.188 trial= 0.724  step= 0.819 mean= 0.724
 gam= 0.272 g(H,U,f)=  0.255E-04 0.299E-05 0.000E+00 ort(H,U,f) = 0.291E-05-0.287E-05 0.000E+00
CGA:   5    -0.240968624479E+04   -0.42857E-04   -0.42854E-04   480   0.285E-04 0.328E-07
 gam= 0.272 trial= 0.728  step= 0.800 mean= 0.728
 gam= 0.468 g(H,U,f)=  0.104E-04 0.292E-05 0.000E+00 ort(H,U,f) = 0.164E-05-0.168E-05 0.000E+00
CGA:   6    -0.240968625620E+04   -0.11406E-04   -0.11407E-04   480   0.133E-04-0.370E-07
 gam= 0.468 trial= 0.732  step= 0.663 mean= 0.732
 gam= 0.314 g(H,U,f)=  0.365E-05 0.538E-06 0.000E+00 ort(H,U,f) = 0.628E-06-0.557E-06 0.000E+00
CGA:   7    -0.240968626062E+04   -0.44197E-05   -0.44221E-05   480   0.419E-05 0.706E-07
 gam= 0.314 trial= 0.729  step= 0.840 mean= 0.729
   9 F= -.24096863E+04 E0= -.24096863E+04  d E =-.406696E-03  mag=     2.0000
 BRION: g(F)=  0.614E-03 g(S)=  0.000E+00 retain N=  3 mean eig= 2.62
 eig:   7.629  0.187  0.057
 bond charge predicted
 writing wavefunctions

 ----------------------------------------------------------------------------- 
|                                                                             |
|           W    W    AA    RRRRR   N    N  II  N    N   GGGG   !!!           |
|           W    W   A  A   R    R  NN   N  II  NN   N  G    G  !!!           |
|           W    W  A    A  R    R  N N  N  II  N N  N  G       !!!           |
|           W WW W  AAAAAA  RRRRR   N  N N  II  N  N N  G  GGG   !            |
|           WW  WW  A    A  R   R   N   NN  II  N   NN  G    G                |
|           W    W  A    A  R    R  N    N  II  N    N   GGGG   !!!           |
|                                                                             |
|      ALGO=A and IALGO=5X tend to fail with the tetrahedron method           |
|      (e.g. Bloechls method ISMEAR=-5 is not variational)                    |
|      please switch to IMSEAR=0-n, except for DOS calculations               |
|      For DOS calculations use IALGO=53 after preconverging with ISMEAR>=0   |
|          I HOPE YOU KNOW, WHAT YOU ARE  DOING                               |
|                                                                             |
 ----------------------------------------------------------------------------- 

       N       E                     dE             d eps       ncg     rms          ort
 gam= 0.000 g(H,U,f)=  0.139E-01 0.924E-03 0.000E+00 ort(H,U,f) = 0.000E+00 0.000E+00 0.000E+00
SDA:   1    -0.240967892698E+04    0.73292E-02    0.00000E+00   480   0.148E-01 0.000E+00
 gam= 0.000 trial= 0.734  step= 0.834 mean= 0.734
 gam= 0.309 g(H,U,f)=  0.352E-02 0.107E-02 0.000E+00 ort(H,U,f) = 0.578E-03-0.594E-03 0.000E+00
CGA:   2    -0.240968511955E+04   -0.61926E-02   -0.61936E-02   480   0.459E-02-0.157E-04
 gam= 0.309 trial= 0.739  step= 0.484 mean= 0.739
 gam= 0.133 g(H,U,f)=  0.527E-03 0.820E-04 0.000E+00 ort(H,U,f) = 0.167E-03-0.143E-03 0.000E+00
CGA:   3    -0.240968621993E+04   -0.11004E-02   -0.11087E-02   480   0.609E-03 0.240E-04
 gam= 0.133 trial= 0.726  step= 0.712 mean= 0.726
 gam= 0.229 g(H,U,f)=  0.126E-03 0.134E-04 0.000E+00 ort(H,U,f) = 0.121E-04-0.124E-04 0.000E+00
CGA:   4    -0.240968643771E+04   -0.21778E-03   -0.21778E-03   480   0.139E-03-0.282E-06
 gam= 0.229 trial= 0.726  step= 0.792 mean= 0.726
 gam= 0.264 g(H,U,f)=  0.338E-04 0.292E-05 0.000E+00 ort(H,U,f) = 0.339E-05-0.366E-05 0.000E+00
CGA:   5    -0.240968649277E+04   -0.55065E-04   -0.55072E-04   480   0.367E-04-0.269E-06
 gam= 0.264 trial= 0.729  step= 0.923 mean= 0.729
 gam= 0.343 g(H,U,f)=  0.111E-04 0.146E-05 0.000E+00 ort(H,U,f) = 0.794E-06-0.711E-06 0.000E+00
CGA:   6    -0.240968650970E+04   -0.16927E-04   -0.16920E-04   480   0.126E-04 0.831E-07
 gam= 0.343 trial= 0.739  step= 0.805 mean= 0.739
 gam= 0.314 g(H,U,f)=  0.345E-05 0.493E-06 0.000E+00 ort(H,U,f) = 0.128E-06-0.185E-06 0.000E+00
CGA:   7    -0.240968651477E+04   -0.50734E-05   -0.50752E-05   480   0.395E-05-0.573E-07
 gam= 0.314 trial= 0.742  step= 0.776 mean= 0.742
  10 F= -.24096865E+04 E0= -.24096865E+04  d E =-.254155E-03  mag=     2.0000
 BRION: g(F)=  0.615E-03 g(S)=  0.000E+00 retain N=  3 mean eig= 1.22
 eig:   2.825  0.412  0.410
 bond charge predicted
 writing wavefunctions

 ----------------------------------------------------------------------------- 
|                                                                             |
|           W    W    AA    RRRRR   N    N  II  N    N   GGGG   !!!           |
|           W    W   A  A   R    R  NN   N  II  NN   N  G    G  !!!           |
|           W    W  A    A  R    R  N N  N  II  N N  N  G       !!!           |
|           W WW W  AAAAAA  RRRRR   N  N N  II  N  N N  G  GGG   !            |
|           WW  WW  A    A  R   R   N   NN  II  N   NN  G    G                |
|           W    W  A    A  R    R  N    N  II  N    N   GGGG   !!!           |
|                                                                             |
|      ALGO=A and IALGO=5X tend to fail with the tetrahedron method           |
|      (e.g. Bloechls method ISMEAR=-5 is not variational)                    |
|      please switch to IMSEAR=0-n, except for DOS calculations               |
|      For DOS calculations use IALGO=53 after preconverging with ISMEAR>=0   |
|          I HOPE YOU KNOW, WHAT YOU ARE  DOING                               |
|                                                                             |
 ----------------------------------------------------------------------------- 

       N       E                     dE             d eps       ncg     rms          ort
 gam= 0.000 g(H,U,f)=  0.402E-02 0.211E-03 0.000E+00 ort(H,U,f) = 0.000E+00 0.000E+00 0.000E+00
SDA:   1    -0.240968450612E+04    0.20036E-02    0.00000E+00   480   0.423E-02 0.000E+00
 gam= 0.000 trial= 0.744  step= 0.817 mean= 0.744
 gam= 0.209 g(H,U,f)=  0.743E-03 0.142E-03 0.000E+00 ort(H,U,f) = 0.124E-03-0.124E-03 0.000E+00
CGA:   2    -0.240968623482E+04   -0.17287E-02   -0.17287E-02   480   0.886E-03 0.266E-06
 gam= 0.209 trial= 0.747  step= 0.577 mean= 0.747
 gam= 0.155 g(H,U,f)=  0.113E-03 0.243E-04 0.000E+00 ort(H,U,f) = 0.299E-04-0.294E-04 0.000E+00
CGA:   3    -0.240968649027E+04   -0.25545E-03   -0.25559E-03   480   0.137E-03 0.500E-06
 gam= 0.155 trial= 0.739  step= 0.595 mean= 0.739
 gam= 0.220 g(H,U,f)=  0.252E-04 0.486E-05 0.000E+00 ort(H,U,f) = 0.513E-05-0.491E-05 0.000E+00
CGA:   4    -0.240968653097E+04   -0.40701E-04   -0.40722E-04   480   0.301E-04 0.220E-06
 gam= 0.220 trial= 0.732  step= 0.659 mean= 0.732
 gam= 0.274 g(H,U,f)=  0.725E-05 0.987E-06 0.000E+00 ort(H,U,f) = 0.120E-05-0.116E-05 0.000E+00
CGA:   5    -0.240968654090E+04   -0.99244E-05   -0.99260E-05   480   0.824E-05 0.357E-07
 gam= 0.274 trial= 0.728  step= 0.818 mean= 0.728
  11 F= -.24096865E+04 E0= -.24096865E+04  d E =-.261254E-04  mag=     2.0000
 BRION: g(F)=  0.613E-03 g(S)=  0.000E+00 retain N=  4 mean eig= 1.94
 eig:   6.182  0.955  0.321  0.321
 bond charge predicted
 writing wavefunctions

 ----------------------------------------------------------------------------- 
|                                                                             |
|           W    W    AA    RRRRR   N    N  II  N    N   GGGG   !!!           |
|           W    W   A  A   R    R  NN   N  II  NN   N  G    G  !!!           |
|           W    W  A    A  R    R  N N  N  II  N N  N  G       !!!           |
|           W WW W  AAAAAA  RRRRR   N  N N  II  N  N N  G  GGG   !            |
|           WW  WW  A    A  R   R   N   NN  II  N   NN  G    G                |
|           W    W  A    A  R    R  N    N  II  N    N   GGGG   !!!           |
|                                                                             |
|      ALGO=A and IALGO=5X tend to fail with the tetrahedron method           |
|      (e.g. Bloechls method ISMEAR=-5 is not variational)                    |
|      please switch to IMSEAR=0-n, except for DOS calculations               |
|      For DOS calculations use IALGO=53 after preconverging with ISMEAR>=0   |
|          I HOPE YOU KNOW, WHAT YOU ARE  DOING                               |
|                                                                             |
 ----------------------------------------------------------------------------- 

       N       E                     dE             d eps       ncg     rms          ort
 gam= 0.000 g(H,U,f)=  0.550E-02 0.380E-03 0.000E+00 ort(H,U,f) = 0.000E+00 0.000E+00 0.000E+00
SDA:   1    -0.240968367322E+04    0.28578E-02    0.00000E+00   480   0.587E-02 0.000E+00
 gam= 0.000 trial= 0.732  step= 0.814 mean= 0.732
 gam= 0.372 g(H,U,f)=  0.160E-02 0.587E-03 0.000E+00 ort(H,U,f) = 0.307E-03-0.308E-03 0.000E+00
CGA:   2    -0.240968606478E+04   -0.23916E-02   -0.23916E-02   480   0.219E-02-0.124E-05
 gam= 0.372 trial= 0.737  step= 0.459 mean= 0.737
 gam= 0.099 g(H,U,f)=  0.196E-03 0.214E-04 0.000E+00 ort(H,U,f) = 0.592E-04-0.515E-04 0.000E+00
CGA:   3    -0.240968656353E+04   -0.49875E-03   -0.50188E-03   480   0.217E-03 0.765E-05
 gam= 0.099 trial= 0.723  step= 0.844 mean= 0.723
 gam= 0.223 g(H,U,f)=  0.433E-04 0.516E-05 0.000E+00 ort(H,U,f) = 0.331E-05-0.345E-05 0.000E+00
CGA:   4    -0.240968665553E+04   -0.92000E-04   -0.92010E-04   480   0.485E-04-0.133E-06
 gam= 0.223 trial= 0.729  step= 0.753 mean= 0.729
 gam= 0.368 g(H,U,f)=  0.148E-04 0.306E-05 0.000E+00 ort(H,U,f) = 0.258E-05-0.275E-05 0.000E+00
CGA:   5    -0.240968667376E+04   -0.18224E-04   -0.18226E-04   480   0.178E-04-0.170E-06
 gam= 0.368 trial= 0.730  step= 0.726 mean= 0.730
 gam= 0.350 g(H,U,f)=  0.529E-05 0.962E-06 0.000E+00 ort(H,U,f) = 0.912E-06-0.828E-06 0.000E+00
CGA:   6    -0.240968668021E+04   -0.64553E-05   -0.64554E-05   480   0.625E-05 0.846E-07
 gam= 0.350 trial= 0.730  step= 0.764 mean= 0.730
  12 F= -.24096867E+04 E0= -.24096867E+04  d E =-.139312E-03  mag=     2.0000
 BRION: g(F)=  0.637E-04 g(S)=  0.000E+00 retain N=  4 mean eig= 2.44
 eig:   7.194  1.597  0.477  0.477
 reached required accuracy - stopping structural energy minimisation
 writing wavefunctions
