 vasp.5.4.4.18Apr17-6-g9f103f2a35 (build Jun 14 2024 12:30:39) gamma-only        
 executed on NVIDIA22.7_CrayMPICH date 2025.02.14  08:56:23
 running on  512 total cores
 distrk:  each k-point on  512 cores,    1 groups
 distr:  one band on NCORES_PER_BAND=  16 cores,   32 groups


--------------------------------------------------------------------------------------------------------


 INCAR:
 POTCAR:   PAW_PBE Si 05Jan2001                   
 POTCAR:   PAW_PBE C 08Apr2002                    
 POTCAR:   PAW_PBE Si 05Jan2001                   
   VRHFIN =Si: s2p2                                                             
   LEXCH  = PE                                                                  
   EATOM  =   103.0669 eV,    7.5752 Ry                                         
                                                                                
   TITEL  = PAW_PBE Si 05Jan2001                                                
   LULTRA =        F    use ultrasoft PP ?                                      
   IUNSCR =        1    unscreen: 0-lin 1-nonlin 2-no                           
   RPACOR =    1.500    partial core radius                                     
   POMASS =   28.085; ZVAL   =    4.000    mass and valenz                      
   RCORE  =    1.900    outmost cutoff radius                                   
   RWIGS  =    2.480; RWIGS  =    1.312    wigner-seitz radius (au A)           
   ENMAX  =  245.345; ENMIN  =  184.009 eV                                      
   ICORE  =        2    local potential                                         
   LCOR   =        T    correct aug charges                                     
   LPAW   =        T    paw PP                                                  
   EAUG   =  322.069                                                            
   DEXC   =    -.007                                                            
   RMAX   =    2.944    core radius for proj-oper                               
   RAUG   =    1.300    factor for augmentation sphere                          
   RDEP   =    1.993    radius for radial grids                                 
   QCUT   =   -4.246; QGAM   =    8.493    optimization parameters              
                                                                                
   Description                                                                  
     l     E      TYP  RCUT    TYP  RCUT                                        
     0   .000     23  1.900                                                     
     0   .000     23  1.900                                                     
     1   .000     23  1.900                                                     
     1   .000     23  1.900                                                     
     2   .000      7  1.900                                                     
  local pseudopotential read in
  partial core-charges read in
  atomic valenz-charges read in
  non local Contribution for L=            0  read in
    real space projection operators read in
  non local Contribution for L=            0  read in
    real space projection operators read in
  non local Contribution for L=            1  read in
    real space projection operators read in
  non local Contribution for L=            1  read in
    real space projection operators read in
    PAW grid and wavefunctions read in
 
   number of l-projection  operators is LMAX  =            4
   number of lm-projection operators is LMMAX =            8
 
 POTCAR:   PAW_PBE C 08Apr2002                    
   VRHFIN =C: s2p2                                                              
   LEXCH  = PE                                                                  
   EATOM  =   147.1560 eV,   10.8157 Ry                                         
                                                                                
   TITEL  = PAW_PBE C 08Apr2002                                                 
   LULTRA =        F    use ultrasoft PP ?                                      
   IUNSCR =        0    unscreen: 0-lin 1-nonlin 2-no                           
   RPACOR =     .000    partial core radius                                     
   POMASS =   12.011; ZVAL   =    4.000    mass and valenz                      
   RCORE  =    1.500    outmost cutoff radius                                   
   RWIGS  =    1.630; RWIGS  =     .863    wigner-seitz radius (au A)           
   ENMAX  =  400.000; ENMIN  =  300.000 eV                                      
   ICORE  =        2    local potential                                         
   LCOR   =        T    correct aug charges                                     
   LPAW   =        T    paw PP                                                  
   EAUG   =  644.873                                                            
   DEXC   =     .000                                                            
   RMAX   =    2.266    core radius for proj-oper                               
   RAUG   =    1.300    factor for augmentation sphere                          
   RDEP   =    1.501    radius for radial grids                                 
   RDEPT  =    1.300    core radius for aug-charge                              
   QCUT   =   -5.516; QGAM   =   11.032    optimization parameters              
                                                                                
   Description                                                                  
     l     E      TYP  RCUT    TYP  RCUT                                        
     0   .000     23  1.200                                                     
     0   .000     23  1.200                                                     
     1   .000     23  1.500                                                     
     1  2.500     23  1.500                                                     
     2   .000      7  1.500                                                     
  local pseudopotential read in
  atomic valenz-charges read in
  non local Contribution for L=            0  read in
    real space projection operators read in
  non local Contribution for L=            0  read in
    real space projection operators read in
  non local Contribution for L=            1  read in
    real space projection operators read in
  non local Contribution for L=            1  read in
    real space projection operators read in
    PAW grid and wavefunctions read in
 
   number of l-projection  operators is LMAX  =            4
   number of lm-projection operators is LMMAX =            8
 
 Optimization of the real space projectors (new method)

 maximal supplied QI-value         = 19.84
 optimisation between [QCUT,QGAM] = [ 10.12, 20.44] = [ 28.68,116.96] Ry 
 Optimized for a Real-space Cutoff    1.38 Angstroem

   l    n(q)    QCUT    max X(q) W(low)/X(q) W(high)/X(q)  e(spline) 
   0      8    10.119     8.708    0.16E-04    0.67E-05    0.60E-08
   0      8    10.119   106.241    0.56E-04    0.11E-03    0.54E-07
   1      8    10.119     5.901    0.16E-04    0.16E-05    0.22E-07
   1      8    10.119    73.241    0.22E-03    0.17E-03    0.18E-06
 Optimization of the real space projectors (new method)

 maximal supplied QI-value         = 25.13
 optimisation between [QCUT,QGAM] = [ 10.05, 20.36] = [ 28.30,116.06] Ry 
 Optimized for a Real-space Cutoff    1.38 Angstroem

   l    n(q)    QCUT    max X(q) W(low)/X(q) W(high)/X(q)  e(spline) 
   0      8    10.053     5.582    0.33E-04    0.15E-04    0.75E-07
   0      8    10.053    69.432    0.23E-03    0.38E-03    0.25E-06
   1      8    10.053     2.780    0.76E-04    0.11E-03    0.15E-06
   1      8    10.053     4.549    0.19E-03    0.19E-03    0.27E-06
 PAW_PBE Si 05Jan2001                   :
 energy of atom  1       EATOM= -103.0669
 kinetic energy error for atom=    0.0012 (will be added to EATOM!!)
 PAW_PBE C 08Apr2002                    :
 energy of atom  2       EATOM= -147.1560
 kinetic energy error for atom=    0.0288 (will be added to EATOM!!)
 
 
 POSCAR: generated by phonopy                    
  positions in direct lattice
  velocities in cartesian coordinates
 exchange correlation table for  LEXCH =        8
   RHO(1)=    0.500       N(1)  =     2000
   RHO(2)=  100.500       N(2)  =     4000
 


--------------------------------------------------------------------------------------------------------


 ion  position               nearest neighbor table
   1  0.000  0.000  0.000-  26 1.98 189 1.98 136 1.98  75 1.98  82 1.98 117 1.98
   2  0.205  0.205  0.039- 189 1.54 139 1.54  91 1.54  40 1.56
   3  0.207  0.207  0.373-  41 1.53  92 1.54 140 1.54 190 1.55
   4  0.209  0.209  0.707-  42 1.53 191 1.54 141 1.54  93 1.54
   5  0.209  0.541  0.042-  94 1.53 192 1.54 142 1.54  43 1.54
   6  0.208  0.541  0.375-  95 1.53  44 1.53 143 1.54 193 1.54
   7  0.209  0.542  0.708-  45 1.54  96 1.54 144 1.54 194 1.54
   8  0.211  0.871  0.042- 136 1.51 195 1.52  97 1.53  37 1.55
   9  0.208  0.874  0.375- 196 1.53  38 1.54  98 1.54 137 1.54
  10  0.211  0.875  0.706- 138 1.53  39 1.53 197 1.53  99 1.54
  11  0.541  0.209  0.042- 148 1.53 198 1.54 100 1.54  49 1.54
  12  0.541  0.208  0.375- 149 1.53  50 1.53 101 1.54 199 1.54
  13  0.542  0.209  0.708-  51 1.54 150 1.54 102 1.54 200 1.54
  14  0.542  0.542  0.042- 103 1.53 151 1.53 201 1.54  52 1.54
  15  0.541  0.541  0.375- 104 1.54 152 1.54  53 1.54 202 1.54
  16  0.542  0.542  0.708- 153 1.53 105 1.53  54 1.54 203 1.54
  17  0.542  0.875  0.042- 145 1.53 204 1.54 106 1.54  46 1.54
  18  0.541  0.875  0.376-  47 1.53 146 1.53 205 1.54 107 1.54
  19  0.543  0.875  0.709- 147 1.53  48 1.53 108 1.54 206 1.54
  20  0.871  0.211  0.042-  82 1.51 207 1.52 157 1.53  31 1.55
  21  0.874  0.208  0.375- 208 1.53  32 1.54 158 1.54  83 1.54
  22  0.875  0.211  0.706-  84 1.53  33 1.53 209 1.53 159 1.54
  23  0.875  0.542  0.042-  85 1.53 210 1.54 160 1.54  34 1.54
  24  0.875  0.541  0.376-  35 1.53  86 1.53 211 1.54 161 1.54
  25  0.875  0.543  0.709-  87 1.53  36 1.53 162 1.54 212 1.54
  26  0.874  0.874  0.052-  88 1.51 154 1.51 213 1.54   1 1.98
  27  0.875  0.875  0.376-  29 1.53 214 1.54 155 1.54  89 1.54
  28  0.877  0.877  0.711-  30 1.53  90 1.54 156 1.54 215 1.55
  29  0.958  0.958  0.292- 163 1.53  27 1.53 115 1.55  73 1.55
  30  0.959  0.959  0.625- 164 1.53  28 1.53 116 1.54  74 1.54
  31  0.958  0.292  0.958- 165 1.53  78 1.53  20 1.55 111 1.55
  32  0.957  0.291  0.291-  21 1.54  76 1.54 166 1.54 109 1.56
  33  0.958  0.293  0.624-  22 1.53  77 1.53 167 1.54 110 1.54
  34  0.959  0.625  0.959- 168 1.53  81 1.53  23 1.54 114 1.54
  35  0.958  0.624  0.293-  79 1.53  24 1.53 169 1.54 112 1.54
  36  0.959  0.626  0.626-  25 1.53  80 1.53 170 1.54 113 1.54
  37  0.292  0.958  0.958- 171 1.53 126 1.53   8 1.55  57 1.55
  38  0.291  0.957  0.291-   9 1.54 124 1.54 172 1.54  55 1.56
  39  0.293  0.958  0.624-  10 1.53 125 1.53 173 1.54  56 1.54
  40  0.291  0.291  0.957-  60 1.54 120 1.54 174 1.54   2 1.56
  41  0.291  0.291  0.291-   3 1.53  58 1.53 118 1.53 175 1.54
  42  0.292  0.292  0.624-   4 1.53  59 1.53 119 1.53 176 1.54
  43  0.293  0.624  0.958-  63 1.53 123 1.53 177 1.54   5 1.54
  44  0.292  0.624  0.292-  61 1.53   6 1.53 121 1.53 178 1.54
  45  0.292  0.625  0.625-   7 1.54  62 1.54 122 1.54 179 1.54
  46  0.625  0.959  0.959- 180 1.53 135 1.53  17 1.54  66 1.54
  47  0.624  0.958  0.293- 133 1.53  18 1.53 181 1.54  64 1.54
  48  0.626  0.959  0.626-  19 1.53 134 1.53 182 1.54  65 1.54
  49  0.624  0.293  0.958- 129 1.53  69 1.53 183 1.54  11 1.54
  50  0.624  0.292  0.292- 127 1.53  12 1.53  67 1.53 184 1.54
  51  0.625  0.292  0.625-  13 1.54 128 1.54  68 1.54 185 1.54
  52  0.626  0.626  0.959-  72 1.53 132 1.53 186 1.54  14 1.54
  53  0.625  0.625  0.292-  70 1.54 130 1.54  15 1.54 187 1.54
  54  0.626  0.626  0.626-  16 1.54 131 1.54  71 1.54 188 1.54
  55  0.205  0.039  0.205- 136 1.54  91 1.54 190 1.54  38 1.56
  56  0.209  0.042  0.541-  92 1.53 137 1.54 191 1.54  39 1.54
  57  0.211  0.042  0.871- 189 1.51 138 1.52  93 1.53  37 1.55
  58  0.207  0.373  0.207-  41 1.53  94 1.54 193 1.54 139 1.55
  59  0.208  0.375  0.541-  95 1.53  42 1.53 194 1.54 140 1.54
  60  0.208  0.375  0.874- 141 1.53  40 1.54  96 1.54 192 1.54
  61  0.209  0.707  0.209-  44 1.53 142 1.54  97 1.54 196 1.54
  62  0.209  0.708  0.542-  45 1.54  98 1.54 197 1.54 143 1.54
  63  0.211  0.706  0.875- 195 1.53  43 1.53 144 1.53  99 1.54
  64  0.541  0.042  0.209- 199 1.53 145 1.54 100 1.54  47 1.54
  65  0.542  0.042  0.542- 101 1.53 200 1.53 146 1.54  48 1.54
  66  0.542  0.042  0.875- 198 1.53 147 1.54 102 1.54  46 1.54
  67  0.541  0.375  0.208- 202 1.53  50 1.53 103 1.54 148 1.54
  68  0.541  0.375  0.541- 104 1.54 203 1.54  51 1.54 149 1.54
  69  0.541  0.376  0.875-  49 1.53 201 1.53 150 1.54 105 1.54
  70  0.542  0.708  0.209-  53 1.54 205 1.54 106 1.54 151 1.54
  71  0.542  0.708  0.542- 107 1.53 206 1.53  54 1.54 152 1.54
  72  0.543  0.709  0.875- 204 1.53  52 1.53 108 1.54 153 1.54
  73  0.871  0.042  0.211-  82 1.51 154 1.52 208 1.53  29 1.55
  74  0.875  0.042  0.542-  83 1.53 155 1.54 209 1.54  30 1.54
  75  0.874  0.052  0.874-  84 1.51 207 1.51 156 1.54   1 1.98
  76  0.874  0.375  0.208- 157 1.53  32 1.54 211 1.54  85 1.54
  77  0.875  0.376  0.541-  33 1.53  86 1.53 158 1.54 212 1.54
  78  0.875  0.376  0.875-  31 1.53 159 1.54  87 1.54 210 1.54
  79  0.875  0.706  0.211-  88 1.53  35 1.53 160 1.53 214 1.54
  80  0.875  0.709  0.543-  89 1.53  36 1.53 215 1.54 161 1.54
  81  0.877  0.711  0.877-  34 1.53  90 1.54 213 1.54 162 1.55
  82  0.948  0.126  0.126-  73 1.51  20 1.51 109 1.54   1 1.98
  83  0.958  0.125  0.458-  74 1.53 110 1.54  21 1.54 163 1.54
  84  0.958  0.129  0.789-  75 1.51 111 1.52  22 1.53 164 1.55
  85  0.958  0.458  0.125-  23 1.53 112 1.54  76 1.54 165 1.54
  86  0.958  0.458  0.458-  24 1.53  77 1.53 113 1.54 166 1.54
  87  0.958  0.459  0.791-  25 1.53 114 1.54  78 1.54 167 1.54
  88  0.958  0.789  0.129-  26 1.51 115 1.52  79 1.53 168 1.55
  89  0.958  0.791  0.459-  80 1.53 116 1.54  27 1.54 169 1.54
  90  0.961  0.795  0.795- 117 1.54  81 1.54  28 1.54 170 1.56
  91  0.289  0.123  0.123- 171 1.53  55 1.54   2 1.54 118 1.55
  92  0.291  0.125  0.457-  56 1.53 172 1.53   3 1.54 119 1.54
  93  0.294  0.125  0.789-  57 1.53 173 1.53 120 1.53   4 1.54
  94  0.291  0.457  0.125-   5 1.53 174 1.53  58 1.54 121 1.54
  95  0.292  0.458  0.458-   6 1.53  59 1.53 175 1.54 122 1.54
  96  0.292  0.458  0.791- 176 1.54   7 1.54  60 1.54 123 1.54
  97  0.294  0.789  0.125-   8 1.53 177 1.53 124 1.53  61 1.54
  98  0.292  0.791  0.458- 178 1.54  62 1.54   9 1.54 125 1.54
  99  0.293  0.791  0.791- 179 1.53 126 1.54  63 1.54  10 1.54
 100  0.624  0.125  0.125- 180 1.53 127 1.54  11 1.54  64 1.54
 101  0.624  0.125  0.459- 181 1.53  65 1.53 128 1.54  12 1.54
 102  0.625  0.126  0.792- 129 1.53 182 1.54  13 1.54  66 1.54
 103  0.624  0.459  0.125- 183 1.53  14 1.53 130 1.54  67 1.54
 104  0.625  0.459  0.459-  68 1.54  15 1.54 184 1.54 131 1.54
 105  0.625  0.459  0.792-  16 1.53 185 1.53  69 1.54 132 1.54
 106  0.625  0.792  0.126- 133 1.53 186 1.54  70 1.54  17 1.54
 107  0.625  0.792  0.459-  71 1.53 187 1.53  18 1.54 134 1.54
 108  0.627  0.793  0.793- 188 1.53  72 1.54  19 1.54 135 1.55
 109  0.039  0.205  0.205-  82 1.54 139 1.54 190 1.54  32 1.56
 110  0.042  0.209  0.541- 140 1.53  83 1.54 191 1.54  33 1.54
 111  0.042  0.211  0.871- 189 1.51  84 1.52 141 1.53  31 1.55
 112  0.042  0.541  0.209- 193 1.53  85 1.54 142 1.54  35 1.54
 113  0.042  0.542  0.542- 143 1.53 194 1.53  86 1.54  36 1.54
 114  0.042  0.542  0.875- 192 1.53  87 1.54 144 1.54  34 1.54
 115  0.042  0.871  0.211- 136 1.51  88 1.52 196 1.53  29 1.55
 116  0.042  0.875  0.542- 137 1.53  89 1.54 197 1.54  30 1.54
 117  0.052  0.874  0.874- 138 1.51 195 1.51  90 1.54   1 1.98
 118  0.373  0.207  0.207-  41 1.53 148 1.54 199 1.54  91 1.55
 119  0.375  0.208  0.541- 149 1.53  42 1.53 200 1.54  92 1.54
 120  0.375  0.208  0.874-  93 1.53  40 1.54 150 1.54 198 1.54
 121  0.375  0.541  0.208- 202 1.53  44 1.53 151 1.54  94 1.54
 122  0.375  0.541  0.541- 152 1.54 203 1.54  45 1.54  95 1.54
 123  0.376  0.541  0.875-  43 1.53 201 1.53  96 1.54 153 1.54
 124  0.375  0.874  0.208-  97 1.53  38 1.54 205 1.54 145 1.54
 125  0.376  0.875  0.541-  39 1.53 146 1.53  98 1.54 206 1.54
 126  0.376  0.875  0.875-  37 1.53  99 1.54 147 1.54 204 1.54
 127  0.707  0.209  0.209-  50 1.53 100 1.54 157 1.54 208 1.54
 128  0.708  0.209  0.542-  51 1.54 158 1.54 209 1.54 101 1.54
 129  0.706  0.211  0.875- 207 1.53  49 1.53 102 1.53 159 1.54
 130  0.708  0.542  0.209-  53 1.54 211 1.54 160 1.54 103 1.54
 131  0.708  0.542  0.542- 161 1.53 212 1.53  54 1.54 104 1.54
 132  0.709  0.543  0.875- 210 1.53  52 1.53 162 1.54 105 1.54
 133  0.706  0.875  0.211- 154 1.53  47 1.53 106 1.53 214 1.54
 134  0.709  0.875  0.543- 155 1.53  48 1.53 215 1.54 107 1.54
 135  0.711  0.877  0.877-  46 1.53 156 1.54 213 1.54 108 1.55
 136  0.126  0.948  0.126- 115 1.51   8 1.51  55 1.54   1 1.98
 137  0.125  0.958  0.458- 116 1.53  56 1.54   9 1.54 163 1.54
 138  0.129  0.958  0.789- 117 1.51  57 1.52  10 1.53 164 1.55
 139  0.123  0.289  0.123- 165 1.53 109 1.54   2 1.54  58 1.55
 140  0.125  0.291  0.457- 110 1.53 166 1.53   3 1.54  59 1.54
 141  0.125  0.294  0.789- 111 1.53 167 1.53  60 1.53   4 1.54
 142  0.125  0.624  0.125- 168 1.53  61 1.54 112 1.54   5 1.54
 143  0.125  0.624  0.459- 169 1.53 113 1.53  62 1.54   6 1.54
 144  0.126  0.625  0.792-  63 1.53 170 1.54   7 1.54 114 1.54
 145  0.458  0.958  0.125-  17 1.53  64 1.54 124 1.54 171 1.54
 146  0.458  0.958  0.458-  18 1.53 125 1.53  65 1.54 172 1.54
 147  0.459  0.958  0.791-  19 1.53  66 1.54 126 1.54 173 1.54
 148  0.457  0.291  0.125-  11 1.53 174 1.53 118 1.54  67 1.54
 149  0.458  0.292  0.458-  12 1.53 119 1.53 175 1.54  68 1.54
 150  0.458  0.292  0.791- 176 1.54  13 1.54 120 1.54  69 1.54
 151  0.459  0.624  0.125- 177 1.53  14 1.53  70 1.54 121 1.54
 152  0.459  0.625  0.459-  15 1.54 122 1.54 178 1.54  71 1.54
 153  0.459  0.625  0.792-  16 1.53 179 1.53 123 1.54  72 1.54
 154  0.789  0.958  0.129-  26 1.51  73 1.52 133 1.53 180 1.55
 155  0.791  0.958  0.459- 134 1.53  74 1.54  27 1.54 181 1.54
 156  0.795  0.961  0.795-  75 1.54 135 1.54  28 1.54 182 1.56
 157  0.789  0.294  0.125-  20 1.53 183 1.53  76 1.53 127 1.54
 158  0.791  0.292  0.458- 184 1.54 128 1.54  21 1.54  77 1.54
 159  0.791  0.293  0.791- 185 1.53  78 1.54 129 1.54  22 1.54
 160  0.792  0.625  0.126-  79 1.53 186 1.54 130 1.54  23 1.54
 161  0.792  0.625  0.459- 131 1.53 187 1.53  24 1.54  80 1.54
 162  0.793  0.627  0.793- 188 1.53 132 1.54  25 1.54  81 1.55
 163  0.041  0.041  0.375-  29 1.53 190 1.53  83 1.54 137 1.54
 164  0.042  0.042  0.708-  30 1.53 191 1.53 138 1.55  84 1.55
 165  0.041  0.375  0.041-  31 1.53 139 1.53 192 1.54  85 1.54
 166  0.041  0.374  0.374- 193 1.53 140 1.53  32 1.54  86 1.54
 167  0.042  0.376  0.707- 141 1.53 194 1.53  33 1.54  87 1.54
 168  0.042  0.708  0.042-  34 1.53 142 1.53 195 1.55  88 1.55
 169  0.042  0.707  0.376- 196 1.53 143 1.53  35 1.54  89 1.54
 170  0.043  0.709  0.709- 197 1.54 144 1.54  36 1.54  90 1.56
 171  0.375  0.041  0.041-  37 1.53  91 1.53 145 1.54 198 1.54
 172  0.374  0.041  0.374- 199 1.53  92 1.53  38 1.54 146 1.54
 173  0.376  0.042  0.707-  93 1.53 200 1.53  39 1.54 147 1.54
 174  0.374  0.374  0.041-  94 1.53 148 1.53  40 1.54 201 1.54
 175  0.374  0.374  0.374- 202 1.54 149 1.54  95 1.54  41 1.54
 176  0.375  0.375  0.708-  96 1.54 150 1.54 203 1.54  42 1.54
 177  0.376  0.707  0.042-  97 1.53 151 1.53  43 1.54 204 1.54
 178  0.375  0.708  0.375- 205 1.54  98 1.54 152 1.54  44 1.54
 179  0.376  0.708  0.708-  99 1.53 206 1.53 153 1.53  45 1.54
 180  0.708  0.042  0.042-  46 1.53 100 1.53 154 1.55 207 1.55
 181  0.707  0.042  0.376- 208 1.53 101 1.53  47 1.54 155 1.54
 182  0.709  0.043  0.709- 209 1.54 102 1.54  48 1.54 156 1.56
 183  0.707  0.376  0.042- 157 1.53 103 1.53  49 1.54 210 1.54
 184  0.708  0.375  0.375- 211 1.54 158 1.54 104 1.54  50 1.54
 185  0.708  0.376  0.708- 159 1.53 212 1.53 105 1.53  51 1.54
 186  0.709  0.709  0.043- 106 1.54 160 1.54  52 1.54 213 1.56
 187  0.708  0.708  0.376- 214 1.53 161 1.53 107 1.53  53 1.54
 188  0.709  0.709  0.709- 215 1.53 162 1.53 108 1.53  54 1.54
 189  0.126  0.126  0.948-  57 1.51 111 1.51   2 1.54   1 1.98
 190  0.123  0.123  0.289- 163 1.53 109 1.54  55 1.54   3 1.55
 191  0.125  0.125  0.624- 164 1.53   4 1.54 110 1.54  56 1.54
 192  0.125  0.458  0.958- 114 1.53   5 1.54  60 1.54 165 1.54
 193  0.125  0.457  0.291- 112 1.53 166 1.53  58 1.54   6 1.54
 194  0.125  0.459  0.624- 167 1.53 113 1.53   7 1.54  59 1.54
 195  0.129  0.789  0.958- 117 1.51   8 1.52  63 1.53 168 1.55
 196  0.125  0.789  0.294- 115 1.53 169 1.53   9 1.53  61 1.54
 197  0.126  0.792  0.625-  10 1.53 170 1.54  62 1.54 116 1.54
 198  0.458  0.125  0.958-  66 1.53  11 1.54 120 1.54 171 1.54
 199  0.457  0.125  0.291-  64 1.53 172 1.53 118 1.54  12 1.54
 200  0.459  0.125  0.624- 173 1.53  65 1.53  13 1.54 119 1.54
 201  0.458  0.458  0.958-  69 1.53 123 1.53  14 1.54 174 1.54
 202  0.458  0.458  0.292-  67 1.53 121 1.53 175 1.54  15 1.54
 203  0.459  0.459  0.625-  68 1.54 122 1.54 176 1.54  16 1.54
 204  0.459  0.791  0.958-  72 1.53  17 1.54 126 1.54 177 1.54
 205  0.458  0.791  0.292- 178 1.54  70 1.54 124 1.54  18 1.54
 206  0.459  0.792  0.625-  71 1.53 179 1.53 125 1.54  19 1.54
 207  0.789  0.129  0.958-  75 1.51  20 1.52 129 1.53 180 1.55
 208  0.789  0.125  0.294-  73 1.53 181 1.53  21 1.53 127 1.54
 209  0.792  0.126  0.625-  22 1.53 182 1.54 128 1.54  74 1.54
 210  0.791  0.459  0.958- 132 1.53  23 1.54  78 1.54 183 1.54
 211  0.791  0.458  0.292- 184 1.54 130 1.54  76 1.54  24 1.54
 212  0.792  0.459  0.625- 131 1.53 185 1.53  77 1.54  25 1.54
 213  0.795  0.795  0.961-  26 1.54  81 1.54 135 1.54 186 1.56
 214  0.791  0.791  0.293- 187 1.53  27 1.54 133 1.54  79 1.54
 215  0.793  0.793  0.627- 188 1.53 134 1.54  80 1.54  28 1.55
 

IMPORTANT INFORMATION: All symmetrisations will be switched off!
NOSYMM: (Re-)initialisation of all symmetry stuff for point group C_1.

 
 
 KPOINTS: pymatgen v1.1 with grid density = 2210 /

Automatic generation of k-mesh.
Space group operators:
 irot       det(A)        alpha          n_x          n_y          n_z        tau_x        tau_y        tau_z
    1     1.000000     0.000000     1.000000     0.000000     0.000000     0.000000     0.000000     0.000000
 
 Subroutine IBZKPT returns following result:
 ===========================================
 
 Found      1 irreducible k-points:
 
 Following reciprocal coordinates:
            Coordinates               Weight
  0.000000  0.000000  0.000000      1.000000
 
 Following cartesian coordinates:
            Coordinates               Weight
  0.000000  0.000000  0.000000      1.000000
 
 
 Subroutine IBZKPT_HF returns following result:
 ==============================================
 
 Found      1 k-points in 1st BZ
 the following      1 k-points will be used (e.g. in the exchange kernel)
 Following reciprocal coordinates:   # in IRBZ
  0.000000  0.000000  0.000000    1.00000000   1 t-inv F


--------------------------------------------------------------------------------------------------------




 Dimension of arrays:
   k-points           NKPTS =      1   k-points in BZ     NKDIM =      1   number of bands    NBANDS=    608
   number of dos      NEDOS =    301   number of ions     NIONS =    215
   non local maximal  LDIM  =      4   non local SUM 2l+1 LMDIM =      8
   total plane-waves  NPLWV = 343000
   max r-space proj   IRMAX =   3182   max aug-charges    IRDMAX=   9703
   dimension x,y,z NGX =    70 NGY =   70 NGZ =   70
   dimension x,y,z NGXF=   140 NGYF=  140 NGZF=  140
   support grid    NGXF=   140 NGYF=  140 NGZF=  140
   ions per type =               1 214
   NGX,Y,Z   is equivalent  to a cutoff of  10.93, 10.93, 10.93 a.u.
   NGXF,Y,Z  is equivalent  to a cutoff of  21.86, 21.86, 21.86 a.u.

 SYSTEM =  unknown system                          
 POSCAR =  generated by phonopy                    

 Startparameter for this run:
   NWRITE =      2    write-flag & timer
   PREC   = accura    normal or accurate (medium, high low for compatibility)
   ISTART =      1    job   : 0-new  1-cont  2-samecut
   ICHARG =      2    charge: 1-file 2-atom 10-const
   ISPIN  =      2    spin polarized calculation?
   LNONCOLLINEAR =      F non collinear calculations
   LSORBIT =      F    spin-orbit coupling
   INIWAV =      1    electr: 0-lowe 1-rand  2-diag
   LASPH  =      F    aspherical Exc in radial PAW
   METAGGA=      F    non-selfconsistent MetaGGA calc.

 Electronic Relaxation 1
   ENCUT  =  400.0 eV  29.40 Ry    5.42 a.u.  17.36 17.36 17.36*2*pi/ulx,y,z
   ENINI  =  400.0     initial cutoff
   ENAUG  =  644.9 eV  augmentation charge cutoff
   NELM   =    100;   NELMIN=  2; NELMDL=  0     # of ELM steps 
   EDIFF  = 0.1E-04   stopping-criterion for ELM
   LREAL  =      T    real-space projection
   NLSPLINE    = F    spline interpolate recip. space projectors
   LCOMPAT=      F    compatible to vasp.4.4
   GGA_COMPAT  = T    GGA compatible to vasp.4.4-vasp.4.6
   LMAXPAW     = -100 max onsite density
   LMAXMIX     =    2 max onsite mixed and CHGCAR
   VOSKOWN=      0    Vosko Wilk Nusair interpolation
   ROPT   =   -0.00025  -0.00025
 Ionic relaxation
   EDIFFG = -.1E-01   stopping-criterion for IOM
   NSW    =     99    number of steps for IOM
   NBLOCK =      1;   KBLOCK =     99    inner block; outer block 
   IBRION =      2    ionic relax: 0-MD 1-quasi-New 2-CG
   NFREE  =      1    steps in history (QN), initial steepest desc. (CG)
   ISIF   =      2    stress and relaxation
   IWAVPR =     11    prediction:  0-non 1-charg 2-wave 3-comb
   ISYM   =      0    0-nonsym 1-usesym 2-fastsym
   LCORR  =      T    Harris-Foulkes like correction to forces

   POTIM  = 0.5000    time-step for ionic-motion
   TEIN   =    0.0    initial temperature
   TEBEG  =    0.0;   TEEND  =   0.0 temperature during run
   SMASS  =  -3.00    Nose mass-parameter (am)
   estimated Nose-frequenzy (Omega)   =  0.10E-29 period in steps =****** mass=  -0.259E-26a.u.
   SCALEE = 1.0000    scale energy and forces
   NPACO  =    256;   APACO  = 16.0  distance and # of slots for P.C.
   PSTRESS=    0.0 pullay stress

  Mass of Ions in am
   POMASS =  28.09 12.01
  Ionic Valenz
   ZVAL   =   4.00  4.00
  Atomic Wigner-Seitz radii
   RWIGS  =  -1.00 -1.00
  virtual crystal weights 
   VCA    =   1.00  1.00
   NELECT =     860.0000    total number of electrons
   NUPDOWN=       2.0000    fix difference up-down

 DOS related values:
   EMIN   =  10.00;   EMAX   =-10.00  energy-range for DOS
   EFERMI =   0.00
   ISMEAR =    -2;   SIGMA  =   0.05  broadening in eV -4-tet -1-fermi 0-gaus

 Electronic relaxation 2 (details)
   IALGO  =     58    algorithm
   LDIAG  =      F    sub-space diagonalisation (order eigenvalues)
   LSUBROT=      F    optimize rotation matrix (better conditioning)
   TURBO    =      0    0=normal 1=particle mesh
   IRESTART =      0    0=no restart 2=restart with 2 vectors
   NREBOOT  =      0    no. of reboots
   NMIN     =      0    reboot dimension
   EREF     =   0.00    reference energy to select bands
   IMIX   =      4    mixing-type and parameters
     AMIX     =   0.40;   BMIX     =  1.00
     AMIX_MAG =   1.60;   BMIX_MAG =  1.00
     AMIN     =   0.10
     WC   =   100.;   INIMIX=   1;  MIXPRE=   1;  MAXMIX= -45

 Intra band minimization:
   WEIMIN = 0.0010     energy-eigenvalue tresh-hold
   EBREAK =  0.41E-08  absolut break condition
   DEPER  =   0.30     relativ break condition  

   TIME   =   0.40     timestep for ELM

  volume/ion in A,a.u.               =       5.61        37.87
  Fermi-wavevector in a.u.,A,eV,Ry     =   1.462352  2.763445 29.095711  2.138474
  Thomas-Fermi vector in A             =   2.578576
 
 Write flags
   LWAVE        =      T    write WAVECAR
   LDOWNSAMPLE  =      F    k-point downsampling of WAVECAR
   LCHARG       =      F    write CHGCAR
   LVTOT        =      F    write LOCPOT, total local potential
   LVHAR        =      F    write LOCPOT, Hartree potential only
   LELF         =      F    write electronic localiz. function (ELF)
   LORBIT       =     11    0 simple, 1 ext, 2 COOP (PROOUT), +10 PAW based schemes


 Dipole corrections
   LMONO  =      F    monopole corrections only (constant potential shift)
   LDIPOL =      F    correct potential (dipole corrections)
   IDIPOL =      0    1-x, 2-y, 3-z, 4-all directions 
   EPSILON=  1.0000000 bulk dielectric constant

 Exchange correlation treatment:
   GGA     =    --    GGA type
   LEXCH   =     8    internal setting for exchange type
   VOSKOWN=      0    Vosko Wilk Nusair interpolation
   EXXOEP  =     0    0=HF, 1=EXX-LHF (local Hartree Fock) 2=EXX OEP
   LHFCALC =     T    Hartree Fock is set to
   LSYMGRAD=     F    symmetrize gradient (conserves proper symmetry)
   PRECFOCK=fast      Normal, Fast or Accurate (Low or Medium for compatibility)
   LRHFCALC=     F    long range Hartree Fock
   LRSCOR  =     F    long range correlation only (use DFT for short range part)
   LTHOMAS =     F    Thomas Fermi screening in HF
   LMODELHF=     F    short range full HF, long range fraction AEXX
   ENCUT4O =  -1.0   cutoff for four orbital integrals eV
   LMAXFOCK=     4    L truncation for augmentation on plane wave grid
   LMAXFOCKAE=  -1    L truncation for all-electron charge restoration on plane wave grid
   NMAXFOCKAE=   1    number of basis functions for all-electron charge restoration
   LFOCKAEDFT=     F  apply the AE augmentation even for DFT
   NKREDX  =     1    reduce k-point grid by
   NKREDY  =     1    reduce k-point grid by
   NKREDZ  =     1    reduce k-point grid by
   SHIFTRED=     F    shift reduced grid of Gamma
   HFKIDENT=     F    idential grid for each k-point
   ODDONLY =     F    use only odd q-grid points
   EVENONLY=     F    use only even q-grid points
   HFALPHA =   -1.0000 decay constant for conv. correction
   MCALPHA =    0.0000 extent of test-charge in conv. correction in multipole expansion
   AEXX    =    0.2500 exact exchange contribution
   HFSCREEN=    0.2000 screening length (either q_TF or 0.3 A-1)
   HFSCREENC=   0.2000 screening length for correlation (either q_TF or 0.3 A-1)
   HFRCUT  =    0.0000 spherical cutoff for potential kernel
   ALDAX   =    0.7500 LDA exchange part
   AGGAX   =    0.7500 GGA exchange part
   ALDAC   =    1.0000 LDA correlation
   AGGAC   =    1.0000 GGA correlation
   ENCUTFOCK=  -1.0 apply spherical cutoff to Coloumb kernel
   NBANDSGWLOW=     1    first orbital included in HF term
   NBLOCK_FOCK=    64    blocking factor in FOCK_ACC
 Linear response parameters
   LEPSILON=     F    determine dielectric tensor
   LRPA    =     F    only Hartree local field effects (RPA)
   LNABLA  =     F    use nabla operator in PAW spheres
   LVEL    =     F    velocity operator in full k-point grid
   LINTERFAST=   F  fast interpolation
   KINTER  =     0    interpolate to denser k-point grid
   CSHIFT  =0.1000    complex shift for real part using Kramers Kronig
   OMEGAMAX=  -1.0    maximum frequency
   DEG_THRESHOLD= 0.2000000E-02 threshold for treating states as degnerate
   RTIME   =   -0.100 relaxation time in fs
  (WPLASMAI=    0.000 imaginary part of plasma frequency in eV, 0.658/RTIME)
   DFIELD  = 0.0000000 0.0000000 0.0000000 field for delta impulse in time
 
 Orbital magnetization related:
   ORBITALMAG=     F  switch on orbital magnetization
   LCHIMAG   =     F  perturbation theory with respect to B field
   DQ        =  0.001000  dq finite difference perturbation B field
   LLRAUG    =     F  two centre corrections for induced B field



--------------------------------------------------------------------------------------------------------


 conjugate gradient relaxation of ions
 charge density and potential will be updated during run
 spin polarized calculation
 Conjugate gradient for all bands (Kresse, et al. variant)
 preconditioned conjugated gradient                                        
 perform Loewdin sub-space diagonalisation
    ordering is kept fixed
    before iterative eigenvector-optimisation
 modified Broyden-mixing scheme, WC =      100.0
 initial mixing is a Kerker type mixing with AMIX =  0.4000 and BMIX =      1.0000
 Hartree-type preconditioning will be used
 using additional bands           178
 real space projection scheme for non local part
 use partial core corrections
 no Harris-corrections to forces 
 use gradient corrections 
 use of overlap-Matrix (Vanderbilt PP)
 partial occupancies read from INCAR or WAVECAR (fixed during run)


--------------------------------------------------------------------------------------------------------


  energy-cutoff  :      400.00
  volume of cell :     1206.61
      direct lattice vectors                 reciprocal lattice vectors
     7.527901926  4.346236203  6.146506184     0.066419569  0.038347356  0.054231351
    -7.527901926  4.346236203  6.146506184    -0.066419569  0.038347356  0.054231351
    -0.000000000 -8.692472407  6.146506184     0.000000000 -0.076694712  0.054231351

  length of vectors
    10.646061000 10.646061000 10.646061000     0.093931455  0.093931455  0.093931455


 
 old parameters found on file WAVECAR:
  energy-cutoff  :      400.00
  volume of cell :     1206.61
      direct lattice vectors                 reciprocal lattice vectors
     7.527901926  4.346236203  6.146506184     0.066419569  0.038347356  0.054231351
    -7.527901926  4.346236203  6.146506184    -0.066419569  0.038347356  0.054231351
    -0.000000000 -8.692472407  6.146506184     0.000000000 -0.076694712  0.054231351

  length of vectors

 
 k-points in units of 2pi/SCALE and weight: pymatgen v1.1 with grid density = 2210 /
   0.00000000  0.00000000  0.00000000       1.000
 
 k-points in reciprocal lattice and weights: pymatgen v1.1 with grid density = 2210 /
   0.00000000  0.00000000  0.00000000       1.000
 
 position of ions in fractional coordinates (direct lattice) 
   0.00000000  0.00000000  0.00000000
   0.20523706  0.20523706  0.03907120
   0.20719807  0.20719807  0.37323555
   0.20880015  0.20880015  0.70709406
   0.20851414  0.54088306  0.04153516
   0.20821001  0.54072312  0.37471960
   0.20878162  0.54151212  0.70783595
   0.21092373  0.87111898  0.04180582
   0.20836162  0.87414202  0.37523652
   0.21063151  0.87457206  0.70624268
   0.54088306  0.20851414  0.04153516
   0.54072312  0.20821001  0.37471960
   0.54151212  0.20878162  0.70783595
   0.54172676  0.54172676  0.04185156
   0.54143265  0.54143265  0.37513137
   0.54213628  0.54213628  0.70840308
   0.54187583  0.87504318  0.04197505
   0.54133188  0.87475338  0.37581574
   0.54282232  0.87537489  0.70891527
   0.87111898  0.21092373  0.04180582
   0.87414202  0.20836162  0.37523652
   0.87457206  0.21063151  0.70624268
   0.87504318  0.54187583  0.04197505
   0.87475338  0.54133188  0.37581574
   0.87537489  0.54282232  0.70891527
   0.87382210  0.87382210  0.05213185
   0.87468421  0.87468421  0.37585623
   0.87692300  0.87692300  0.71062135
   0.95768266  0.95768266  0.29230318
   0.95898502  0.95898502  0.62544500
   0.95768266  0.29230318  0.95768266
   0.95715206  0.29094355  0.29094355
   0.95828690  0.29296320  0.62374209
   0.95898502  0.62544500  0.95898502
   0.95828690  0.62374209  0.29296320
   0.95883322  0.62575745  0.62575745
   0.29230318  0.95768266  0.95768266
   0.29094355  0.95715206  0.29094355
   0.29296320  0.95828690  0.62374209
   0.29094355  0.29094355  0.95715206
   0.29060861  0.29060861  0.29060861
   0.29183415  0.29183415  0.62393941
   0.29296320  0.62374209  0.95828690
   0.29183415  0.62393941  0.29183415
   0.29221657  0.62490576  0.62490576
   0.62544500  0.95898502  0.95898502
   0.62374209  0.95828690  0.29296320
   0.62575745  0.95883322  0.62575745
   0.62374209  0.29296320  0.95828690
   0.62393941  0.29183415  0.29183415
   0.62490576  0.29221657  0.62490576
   0.62575745  0.62575745  0.95883322
   0.62490576  0.62490576  0.29221657
   0.62563682  0.62563682  0.62563682
   0.20523706  0.03907120  0.20523706
   0.20851414  0.04153516  0.54088306
   0.21092373  0.04180582  0.87111898
   0.20719807  0.37323555  0.20719807
   0.20821001  0.37471960  0.54072312
   0.20836162  0.37523652  0.87414202
   0.20880015  0.70709406  0.20880015
   0.20878162  0.70783595  0.54151212
   0.21063151  0.70624268  0.87457206
   0.54088306  0.04153516  0.20851414
   0.54172676  0.04185156  0.54172676
   0.54187583  0.04197505  0.87504318
   0.54072312  0.37471960  0.20821001
   0.54143265  0.37513137  0.54143265
   0.54133188  0.37581574  0.87475338
   0.54151212  0.70783595  0.20878162
   0.54213628  0.70840308  0.54213628
   0.54282232  0.70891527  0.87537489
   0.87111898  0.04180582  0.21092373
   0.87504318  0.04197505  0.54187583
   0.87382210  0.05213185  0.87382210
   0.87414202  0.37523652  0.20836162
   0.87475338  0.37581574  0.54133188
   0.87468421  0.37585623  0.87468421
   0.87457206  0.70624268  0.21063151
   0.87537489  0.70891527  0.54282232
   0.87692300  0.71062135  0.87692300
   0.94786815  0.12617790  0.12617790
   0.95802495  0.12495682  0.45812417
   0.95819418  0.12888102  0.78907627
   0.95802495  0.45812417  0.12495682
   0.95814844  0.45827324  0.45827324
   0.95846484  0.45911694  0.79148586
   0.95819418  0.78907627  0.12888102
   0.95846484  0.79148586  0.45911694
   0.96092880  0.79476294  0.79476294
   0.28937865  0.12307700  0.12307700
   0.29108473  0.12462511  0.45717768
   0.29375732  0.12542794  0.78936849
   0.29108473  0.45717768  0.12462511
   0.29159692  0.45786372  0.45786372
   0.29216405  0.45848788  0.79121838
   0.29375732  0.78936849  0.12542794
   0.29216405  0.79121838  0.45848788
   0.29290594  0.79119985  0.79119985
   0.62414377  0.12531579  0.12531579
   0.62418426  0.12524662  0.45866812
   0.62476348  0.12585798  0.79163838
   0.62418426  0.45866812  0.12524662
   0.62486863  0.45856735  0.45856735
   0.62528040  0.45927688  0.79178999
   0.62476348  0.79163838  0.12585798
   0.62528040  0.79178999  0.45927688
   0.62676445  0.79280193  0.79280193
   0.03907120  0.20523706  0.20523706
   0.04153516  0.20851414  0.54088306
   0.04180582  0.21092373  0.87111898
   0.04153516  0.54088306  0.20851414
   0.04185156  0.54172676  0.54172676
   0.04197505  0.54187583  0.87504318
   0.04180582  0.87111898  0.21092373
   0.04197505  0.87504318  0.54187583
   0.05213185  0.87382210  0.87382210
   0.37323555  0.20719807  0.20719807
   0.37471960  0.20821001  0.54072312
   0.37523652  0.20836162  0.87414202
   0.37471960  0.54072312  0.20821001
   0.37513137  0.54143265  0.54143265
   0.37581574  0.54133188  0.87475338
   0.37523652  0.87414202  0.20836162
   0.37581574  0.87475338  0.54133188
   0.37585623  0.87468421  0.87468421
   0.70709406  0.20880015  0.20880015
   0.70783595  0.20878162  0.54151212
   0.70624268  0.21063151  0.87457206
   0.70783595  0.54151212  0.20878162
   0.70840308  0.54213628  0.54213628
   0.70891527  0.54282232  0.87537489
   0.70624268  0.87457206  0.21063151
   0.70891527  0.87537489  0.54282232
   0.71062135  0.87692300  0.87692300
   0.12617790  0.94786815  0.12617790
   0.12495682  0.95802495  0.45812417
   0.12888102  0.95819418  0.78907627
   0.12307700  0.28937865  0.12307700
   0.12462511  0.29108473  0.45717768
   0.12542794  0.29375732  0.78936849
   0.12531579  0.62414377  0.12531579
   0.12524662  0.62418426  0.45866812
   0.12585798  0.62476348  0.79163838
   0.45812417  0.95802495  0.12495682
   0.45827324  0.95814844  0.45827324
   0.45911694  0.95846484  0.79148586
   0.45717768  0.29108473  0.12462511
   0.45786372  0.29159692  0.45786372
   0.45848788  0.29216405  0.79121838
   0.45866812  0.62418426  0.12524662
   0.45856735  0.62486863  0.45856735
   0.45927688  0.62528040  0.79178999
   0.78907627  0.95819418  0.12888102
   0.79148586  0.95846484  0.45911694
   0.79476294  0.96092880  0.79476294
   0.78936849  0.29375732  0.12542794
   0.79121838  0.29216405  0.45848788
   0.79119985  0.29290594  0.79119985
   0.79163838  0.62476348  0.12585798
   0.79178999  0.62528040  0.45927688
   0.79280193  0.62676445  0.79280193
   0.04101498  0.04101498  0.37455500
   0.04231734  0.04231734  0.70769682
   0.04101498  0.37455500  0.04101498
   0.04116678  0.37424255  0.37424255
   0.04171310  0.37625791  0.70703680
   0.04231734  0.70769682  0.04231734
   0.04171310  0.70703680  0.37625791
   0.04284794  0.70905645  0.70905645
   0.37455500  0.04101498  0.04101498
   0.37424255  0.04116678  0.37424255
   0.37625791  0.04171310  0.70703680
   0.37424255  0.37424255  0.04116678
   0.37436318  0.37436318  0.37436318
   0.37509424  0.37509424  0.70778343
   0.37625791  0.70703680  0.04171310
   0.37509424  0.70778343  0.37509424
   0.37606059  0.70816585  0.70816585
   0.70769682  0.04231734  0.04231734
   0.70703680  0.04171310  0.37625791
   0.70905645  0.04284794  0.70905645
   0.70703680  0.37625791  0.04171310
   0.70778343  0.37509424  0.37509424
   0.70816585  0.37606059  0.70816585
   0.70905645  0.70905645  0.04284794
   0.70816585  0.70816585  0.37606059
   0.70939139  0.70939139  0.70939139
   0.12617790  0.12617790  0.94786815
   0.12307700  0.12307700  0.28937865
   0.12531579  0.12531579  0.62414377
   0.12495682  0.45812417  0.95802495
   0.12462511  0.45717768  0.29108473
   0.12524662  0.45866812  0.62418426
   0.12888102  0.78907627  0.95819418
   0.12542794  0.78936849  0.29375732
   0.12585798  0.79163838  0.62476348
   0.45812417  0.12495682  0.95802495
   0.45717768  0.12462511  0.29108473
   0.45866812  0.12524662  0.62418426
   0.45827324  0.45827324  0.95814844
   0.45786372  0.45786372  0.29159692
   0.45856735  0.45856735  0.62486863
   0.45911694  0.79148586  0.95846484
   0.45848788  0.79121838  0.29216405
   0.45927688  0.79178999  0.62528040
   0.78907627  0.12888102  0.95819418
   0.78936849  0.12542794  0.29375732
   0.79163838  0.12585798  0.62476348
   0.79148586  0.45911694  0.95846484
   0.79121838  0.45848788  0.29216405
   0.79178999  0.45927688  0.62528040
   0.79476294  0.79476294  0.96092880
   0.79119985  0.79119985  0.29290594
   0.79280193  0.79280193  0.62676445
 
 position of ions in cartesian coordinates  (Angst):
   0.00000000  0.00000000  0.00000000
   0.00000000  1.44439215  2.76313303
  -0.00000000 -1.44327621  4.84118298
  -0.00000000 -4.33140607  6.91294077
  -2.50204060  2.89601400  4.86147065
  -2.50312609 -0.00219952  6.90653848
  -2.50476261 -2.89189064  8.96240311
  -4.96988509  4.33941725  6.90774189
  -5.01192955  1.44308336  8.96000892
  -4.99807939 -1.42244392 11.01113545
   2.50204060  2.89601400  4.86147065
   2.50312609 -0.00219952  6.90653848
   2.50476261 -2.89189064  8.96240311
   0.00000000  4.34515144  6.91669463
   0.00000000  1.44556927  8.96158555
  -0.00000000 -1.44526957 11.01869193
  -2.50805112  5.79339774  8.96710142
  -2.50996436  2.88787307 11.01393057
  -2.50342306  0.00159361 13.07431003
   4.96988509  4.33941725  6.90774189
   5.01192955  1.44308336  8.96000892
   4.99807939 -1.42244392 11.01113545
   2.50805112  5.79339774  8.96710142
   2.50996436  2.88787307 11.01393057
   2.50342306  0.00159361 13.07431003
   0.00000000  7.14251989 11.06233466
   0.00000000  4.33604845 13.06270648
   0.00000000  1.44557245 15.14786381
   0.00000000  5.78379280 13.56944815
   0.00000000  2.89928745 15.63311623
   5.00891149 -2.89189640 13.56944815
   5.01515238  2.89549957  9.45971368
   5.00849154  0.01636755 11.52465111
   2.51085658 -1.44964372 15.63311623
   2.51842049  4.32929713 11.52465111
   2.50736174  1.44762598 13.58591834
  -5.00891149 -2.89189640 13.56944815
  -5.01515238  2.89549957  9.45971368
  -5.00849154  0.01636755 11.52465111
  -0.00000000 -5.79099915  9.45971368
  -0.00000000 -0.00000000  5.35868286
  -0.00000000 -2.88681581  7.42256823
  -2.49007106 -4.34566469 11.52465111
  -2.50005583  1.44340791  7.42256823
  -2.50445159 -1.44594580  9.47808512
  -2.51085658 -1.44964372 15.63311623
  -2.51842049  4.32929713 11.52465111
  -2.50736174  1.44762598 13.58591834
   2.49007106 -4.34566469 11.52465111
   2.50005583  1.44340791  7.42256823
   2.50445159 -1.44594580  9.47808512
  -0.00000000 -2.89525196 13.58591834
   0.00000000  2.89189161  9.47808512
   0.00000000 -0.00000000 11.53644182
   1.25088030 -0.72219608  2.76313303
   1.25700139 -3.61483772  4.86147065
   1.27310303 -6.47375536  6.90774189
  -1.24991386  0.72163810  4.84118298
  -1.25346789 -2.16667102  6.90653848
  -1.25621792 -5.06200000  8.96000892
  -3.75110769  2.16570304  6.91294077
  -3.75683206 -0.72324273  8.96240311
  -3.73091226 -3.61724176 11.01113545
   3.75904200  0.71882372  4.86147065
   3.76301153 -2.17257572  6.91669463
   3.76320406 -5.06873485  8.96710142
   1.24965820  2.16887054  6.90653848
   1.25189971 -0.72278464  8.96158555
   1.24598926 -3.61762943 11.01393057
  -1.25206945  3.61513337  8.96240311
  -1.25164016  0.72263479 11.01869193
  -1.25033142 -2.16882477 13.07431003
   6.24298811  2.13433812  6.90774189
   6.27125518 -0.72466289  8.96710142
   6.18560368 -3.57125995 11.06233466
   3.75571163  3.61891663  8.96000892
   3.75595362  0.72975636 11.01393057
   3.75512811 -2.16802422 13.06270648
   1.26716712  5.03968568 11.01113545
   1.25309164  2.16723116 13.07431003
   1.25190247 -0.72278623 15.14786381
   6.18560368  3.57125995  7.37718389
   6.27125518  0.72466289  9.47241713
   6.24298811 -2.13433812 11.53177666
   3.76320406  5.06873485  9.47241713
   3.76301153  2.17257572 11.52282392
   3.75904200 -0.71882372 13.57804790
   1.27310303  6.47375536 11.53177666
   1.25700139  3.61483772 13.57804790
   1.25088030  0.72219608 15.67638552
   1.25190247  0.72278623  3.29165474
   1.25309164 -2.16723116  5.36520852
   1.26716712 -5.03968568  7.42838310
  -1.25033142  2.16882477  5.36520852
  -1.25164016 -0.72263479  7.42082662
  -1.25206945 -3.61513337  9.47711544
  -3.73091226  3.61724176  7.42838310
  -3.75683206  0.72324273  9.47711544
  -3.75110769 -2.16570304 11.52657779
   3.75512811  2.16802422  5.37681207
   3.75595362 -0.72975636  7.42558798
   3.75571163 -3.61891663  9.47950963
   1.24598926  3.61762943  7.42558798
   1.25189971  0.72278464  9.47793301
   1.24965820 -2.16887054 11.53298007
  -1.25621792  5.06200000  9.47950963
  -1.25346789  2.16667102 11.53298007
  -1.24991386 -0.72163810 13.59833557
  -1.25088030 -0.72219608  2.76313303
  -1.25700139 -3.61483772  4.86147065
  -1.27310303 -6.47375536  6.90774189
  -3.75904200  0.71882372  4.86147065
  -3.76301153 -2.17257572  6.91669463
  -3.76320406 -5.06873485  8.96710142
  -6.24298811  2.13433812  6.90774189
  -6.27125518 -0.72466289  8.96710142
  -6.18560368 -3.57125995 11.06233466
   1.24991386  0.72163810  4.84118298
   1.25346789 -2.16667102  6.90653848
   1.25621792 -5.06200000  8.96000892
  -1.24965820  2.16887054  6.90653848
  -1.25189971 -0.72278464  8.96158555
  -1.24598926 -3.61762943 11.01393057
  -3.75571163  3.61891663  8.96000892
  -3.75595362  0.72975636 11.01393057
  -3.75512811 -2.16802422 13.06270648
   3.75110769  2.16570304  6.91294077
   3.75683206 -0.72324273  8.96240311
   3.73091226 -3.61724176 11.01113545
   1.25206945  3.61513337  8.96240311
   1.25164016  0.72263479 11.01869193
   1.25033142 -2.16882477 13.07431003
  -1.26716712  5.03968568 11.01113545
  -1.25309164  2.16723116 13.07431003
  -1.25190247 -0.72278623 15.14786381
  -6.18560368  3.57125995  7.37718389
  -6.27125518  0.72466289  9.47241713
  -6.24298811 -2.13433812 11.53177666
  -1.25190247  0.72278623  3.29165474
  -1.25309164 -2.16723116  5.36520852
  -1.26716712 -5.03968568  7.42838310
  -3.75512811  2.16802422  5.37681207
  -3.75595362 -0.72975636  7.42558798
  -3.75571163 -3.61891663  9.47950963
  -3.76320406  5.06873485  9.47241713
  -3.76301153  2.17257572 11.52282392
  -3.75904200 -0.71882372 13.57804790
   1.25033142  2.16882477  5.36520852
   1.25164016 -0.72263479  7.42082662
   1.25206945 -3.61513337  9.47711544
  -1.24598926  3.61762943  7.42558798
  -1.25189971  0.72278464  9.47793301
  -1.24965820 -2.16887054 11.53298007
  -1.27310303  6.47375536 11.53177666
  -1.25700139  3.61483772 13.57804790
  -1.25088030  0.72219608 15.67638552
   3.73091226  3.61724176  7.42838310
   3.75683206  0.72324273  9.47711544
   3.75110769 -2.16570304 11.52657779
   1.25621792  5.06200000  9.47950963
   1.25346789  2.16667102 11.53298007
   1.24991386 -0.72163810 13.59833557
  -0.00000000 -2.89928745  2.80640232
  -0.00000000 -5.78379280  4.87007040
  -2.51085658  1.44964372  2.80640232
  -2.50736174 -1.44762598  4.85360021
  -2.51842049 -4.32929713  6.91486744
  -5.00891149  2.89189640  4.87007040
  -5.00849154 -0.01636755  6.91486744
  -5.01515238 -2.89549957  8.97980487
   2.51085658  1.44964372  2.80640232
   2.50736174 -1.44762598  4.85360021
   2.51842049 -4.32929713  6.91486744
   0.00000000  2.89525196  4.85360021
   0.00000000 -0.00000000  6.90307674
  -0.00000000 -2.89189161  8.96143343
  -2.49007106  4.34566469  6.91486744
  -2.50445159  1.44594580  8.96143343
  -2.50005583 -1.44340791 11.01695032
   5.00891149  2.89189640  4.87007040
   5.00849154 -0.01636755  6.91486744
   5.01515238 -2.89549957  8.97980487
   2.49007106  4.34566469  6.91486744
   2.50445159  1.44594580  8.96143343
   2.50005583 -1.44340791 11.01695032
   0.00000000  5.79099915  8.97980487
   0.00000000  2.88681581 11.01695032
   0.00000000 -0.00000000 13.08083569
  -0.00000000 -7.14251989  7.37718389
  -0.00000000 -1.44557245  3.29165474
  -0.00000000 -4.33604845  5.37681207
  -2.50805112 -5.79339774  9.47241713
  -2.50342306 -0.00159361  5.36520852
  -2.50996436 -2.88787307  7.42558798
  -4.96988509 -4.33941725 11.53177666
  -4.99807939  1.42244392  7.42838310
  -5.01192955 -1.44308336  9.47950963
   2.50805112 -5.79339774  9.47241713
   2.50342306 -0.00159361  5.36520852
   2.50996436 -2.88787307  7.42558798
  -0.00000000 -4.34515144 11.52282392
   0.00000000  1.44526957  7.42082662
   0.00000000 -1.44556927  9.47793301
  -2.50204060 -2.89601400 13.57804790
  -2.50476261  2.89189064  9.47711544
  -2.50312609  0.00219952 11.53298007
   4.96988509 -4.33941725 11.53177666
   4.99807939  1.42244392  7.42838310
   5.01192955 -1.44308336  9.47950963
   2.50204060 -2.89601400 13.57804790
   2.50476261  2.89189064  9.47711544
   2.50312609  0.00219952 11.53298007
  -0.00000000 -1.44439215 15.67638552
   0.00000000  4.33140607 11.52657779
   0.00000000  1.44327621 13.59833557
 


--------------------------------------------------------------------------------------------------------


 use parallel FFT for orbitals z direction half grid
 k-point  1 :   0.0000 0.0000 0.0000  plane waves:   10988

 maximum and minimum number of plane-waves per node :       696      679

 maximum number of plane-waves:     10988
 maximum index in each direction: 
   IXMAX=   17   IYMAX=   17   IZMAX=   17
   IXMIN=  -17   IYMIN=  -17   IZMIN=    0


 real space projection operators:
  total allocation   :      40841.81 KBytes
  max/ min on nodes  :       2928.50       2334.94


 parallel 3D FFT for wavefunctions:
    minimum data exchange during FFTs selected (reduces bandwidth)
 parallel 3D FFT for charge:
    minimum data exchange during FFTs selected (reduces bandwidth)


 FFT grid for exact exchange (Hartree Fock) 
  NGX = 36; NGY = 36; NGZ = 36

 use parallel FFT for orbitals z direction half grid
 
 Radii for the augmentation spheres in the non-local exchange
 for species   1 augmentation radius   1.055 (default was   0.989)
       energy cutoff for augmentation   1600.0
 for species   2 augmentation radius   0.795 (default was   0.699)
       energy cutoff for augmentation   1600.0

 real space projection operators:
  total allocation   :       1318.99 KBytes
  max/ min on nodes  :        110.25         69.47

 Maximum index for augmentation-charges in exchange            37
  SETUP_FOCK is finished

 total amount of memory used by VASP MPI-rank0    40004. kBytes
=======================================================================

   base      :      30000. kBytes
   nonlr-proj:       3647. kBytes
   fftplans  :       1350. kBytes
   grid      :       3557. kBytes
   one-center:         43. kBytes
   HF        :          9. kBytes
   wavefun   :       1398. kBytes
 
     INWAV:  cpu time    0.3747: real time    0.3785
 Broyden mixing: mesh for mixing (old mesh)
   NGX = 35   NGY = 35   NGZ = 35
  (NGX  =140   NGY  =140   NGZ  =140)
  gives a total of  42875 points

 initial charge density was supplied:
 charge density of overlapping atoms calculated
 number of electron     860.0000000 magnetization     129.0000000
 charge density for first step will be calculated from the start-wavefunctions


--------------------------------------------------------------------------------------------------------


 Maximum index for non-local projection operator           457
 Maximum index for augmentation-charges           529 (set IRDMAX)


--------------------------------------------------------------------------------------------------------


 initial charge from wavefunction
 First call to EWALD:  gamma=   0.166
 Maximum number of real-space cells 3x 3x 3
 Maximum number of reciprocal cells 3x 3x 3

    FEWALD:  cpu time    0.0107: real time    0.0107

 ----------------------------------------------------------------------------- 
|                                                                             |
|           W    W    AA    RRRRR   N    N  II  N    N   GGGG   !!!           |
|           W    W   A  A   R    R  NN   N  II  NN   N  G    G  !!!           |
|           W    W  A    A  R    R  N N  N  II  N N  N  G       !!!           |
|           W WW W  AAAAAA  RRRRR   N  N N  II  N  N N  G  GGG   !            |
|           WW  WW  A    A  R   R   N   NN  II  N   NN  G    G                |
|           W    W  A    A  R    R  N    N  II  N    N   GGGG   !!!           |
|                                                                             |
|      ALGO=A and IALGO=5X tend to fail with the tetrahedron method           |
|      (e.g. Bloechls method ISMEAR=-5 is not variational)                    |
|      please switch to IMSEAR=0-n, except for DOS calculations               |
|      For DOS calculations use IALGO=53 after preconverging with ISMEAR>=0   |
|          I HOPE YOU KNOW, WHAT YOU ARE  DOING                               |
|                                                                             |
 ----------------------------------------------------------------------------- 



--------------------------------------- Iteration      1(   1)  ---------------------------------------


    POTLOK:  cpu time    0.1506: real time    0.1506
    SETDIJ:  cpu time    0.0494: real time    0.0494
    TRIAL :  cpu time    9.4349: real time    9.4364
    CORREC:  cpu time    9.3932: real time    9.3947
    CHARGE:  cpu time    0.0275: real time    0.0275
    --------------------------------------------
      LOOP:  cpu time   19.0587: real time   19.0687

 eigenvalue-minimisations  :     0
 total energy-change (2. order) :-0.2406215E+04  (-0.2465238E+01)
 number of electron     859.9999991 magnetization       1.9999999
 augmentation part       19.9901597 magnetization       0.1355440

 Free energy of the ion-electron system (eV)
  ---------------------------------------------------
  alpha Z        PSCENC =      3112.96981489
  Ewald energy   TEWEN  =    -37448.55501798
  -Hartree energ DENC   =     -2913.17426450
  -exchange      EXHF   =      1980.60451407
  -V(xc)+E(xc)   XCENC  =      2427.47215614
  PAW double counting   =     14974.28775005   -15160.66396207
  entropy T*S    EENTRO =         0.00000000
  eigenvalues    EBANDS =      -436.31388272
  atomic energy  EATOM  =     31057.15824686
  ---------------------------------------------------
  free energy    TOTEN  =     -2406.21464527 eV

  energy without entropy =    -2406.21464527  energy(sigma->0) =    -2406.21464527
  exchange ACFDT corr.  =        -0.18465375  see jH, gK, PRB 81, 115126


--------------------------------------------------------------------------------------------------------




--------------------------------------- Iteration      1(   2)  ---------------------------------------


    POTLOK:  cpu time    0.1330: real time    0.1330
    SETDIJ:  cpu time    0.0437: real time    0.0437
    TRIAL :  cpu time    9.4759: real time    9.4770
    CORREC:  cpu time    9.3766: real time    9.3777
    CHARGE:  cpu time    0.0217: real time    0.0217
    --------------------------------------------
      LOOP:  cpu time   19.0524: real time   19.0549

 eigenvalue-minimisations  :     0
 total energy-change (2. order) :-0.2466206E+01  (-0.2146621E+00)
 number of electron     859.9999991 magnetization       1.9999999
 augmentation part       19.9699372 magnetization       0.1362187

 Free energy of the ion-electron system (eV)
  ---------------------------------------------------
  alpha Z        PSCENC =      3112.96981489
  Ewald energy   TEWEN  =    -37448.55501798
  -Hartree energ DENC   =     -2853.42067707
  -exchange      EXHF   =      1979.26330655
  -V(xc)+E(xc)   XCENC  =      2423.17772413
  PAW double counting   =     14829.12909488   -15012.18269349
  entropy T*S    EENTRO =         0.00000000
  eigenvalues    EBANDS =      -496.22065031
  atomic energy  EATOM  =     31057.15824686
  ---------------------------------------------------
  free energy    TOTEN  =     -2408.68085154 eV

  energy without entropy =    -2408.68085154  energy(sigma->0) =    -2408.68085154
  exchange ACFDT corr.  =        -0.14479203  see jH, gK, PRB 81, 115126


--------------------------------------------------------------------------------------------------------




--------------------------------------- Iteration      1(   3)  ---------------------------------------


    POTLOK:  cpu time    0.1325: real time    0.1325
    SETDIJ:  cpu time    0.0431: real time    0.0431
    TRIAL :  cpu time    9.3996: real time    9.4007
    CORREC:  cpu time    9.3290: real time    9.3301
    CHARGE:  cpu time    0.0220: real time    0.0220
    --------------------------------------------
      LOOP:  cpu time   18.9265: real time   18.9288

 eigenvalue-minimisations  :     0
 total energy-change (2. order) :-0.2144671E+00  (-0.2605532E-01)
 number of electron     859.9999991 magnetization       1.9999999
 augmentation part       19.9695044 magnetization       0.1364069

 Free energy of the ion-electron system (eV)
  ---------------------------------------------------
  alpha Z        PSCENC =      3112.96981489
  Ewald energy   TEWEN  =    -37448.55501798
  -Hartree energ DENC   =     -2870.50689010
  -exchange      EXHF   =      1981.61928762
  -V(xc)+E(xc)   XCENC  =      2424.47987188
  PAW double counting   =     14878.68953423   -15061.55704027
  entropy T*S    EENTRO =         0.00000000
  eigenvalues    EBANDS =      -483.19312578
  atomic energy  EATOM  =     31057.15824686
  ---------------------------------------------------
  free energy    TOTEN  =     -2408.89531866 eV

  energy without entropy =    -2408.89531866  energy(sigma->0) =    -2408.89531866
  exchange ACFDT corr.  =        -0.14555310  see jH, gK, PRB 81, 115126


--------------------------------------------------------------------------------------------------------




--------------------------------------- Iteration      1(   4)  ---------------------------------------


    POTLOK:  cpu time    0.1324: real time    0.1324
    SETDIJ:  cpu time    0.0436: real time    0.0436
    TRIAL :  cpu time    9.4448: real time    9.4459
    CORREC:  cpu time    9.8926: real time    9.8944
    CHARGE:  cpu time    0.0220: real time    0.0220
    --------------------------------------------
      LOOP:  cpu time   19.5358: real time   19.5388

 eigenvalue-minimisations  :     0
 total energy-change (2. order) :-0.2602167E-01  (-0.7898133E-02)
 number of electron     859.9999991 magnetization       1.9999999
 augmentation part       19.9701544 magnetization       0.1365576

 Free energy of the ion-electron system (eV)
  ---------------------------------------------------
  alpha Z        PSCENC =      3112.96981489
  Ewald energy   TEWEN  =    -37448.55501798
  -Hartree energ DENC   =     -2870.04399770
  -exchange      EXHF   =      1981.59407027
  -V(xc)+E(xc)   XCENC  =      2424.45447110
  PAW double counting   =     14875.61087641   -15058.45141343
  entropy T*S    EENTRO =         0.00000000
  eigenvalues    EBANDS =      -483.65839076
  atomic energy  EATOM  =     31057.15824686
  ---------------------------------------------------
  free energy    TOTEN  =     -2408.92134033 eV

  energy without entropy =    -2408.92134033  energy(sigma->0) =    -2408.92134033
  exchange ACFDT corr.  =        -0.14564434  see jH, gK, PRB 81, 115126


--------------------------------------------------------------------------------------------------------




--------------------------------------- Iteration      1(   5)  ---------------------------------------


    POTLOK:  cpu time    0.1326: real time    0.1326
    SETDIJ:  cpu time    0.0442: real time    0.0443
    TRIAL :  cpu time    9.3780: real time    9.3794
    CORREC:  cpu time    9.4128: real time    9.4140
    CHARGE:  cpu time    0.0219: real time    0.0219
    --------------------------------------------
      LOOP:  cpu time   18.9900: real time   18.9926

 eigenvalue-minimisations  :     0
 total energy-change (2. order) :-0.7859977E-02  (-0.2028099E-02)
 number of electron     859.9999991 magnetization       1.9999999
 augmentation part       19.9748925 magnetization       0.1366056

 Free energy of the ion-electron system (eV)
  ---------------------------------------------------
  alpha Z        PSCENC =      3112.96981489
  Ewald energy   TEWEN  =    -37448.55501798
  -Hartree energ DENC   =     -2870.85132567
  -exchange      EXHF   =      1981.67690993
  -V(xc)+E(xc)   XCENC  =      2424.51420879
  PAW double counting   =     14875.33445916   -15058.22030407
  entropy T*S    EENTRO =         0.00000000
  eigenvalues    EBANDS =      -482.95619223
  atomic energy  EATOM  =     31057.15824686
  ---------------------------------------------------
  free energy    TOTEN  =     -2408.92920031 eV

  energy without entropy =    -2408.92920031  energy(sigma->0) =    -2408.92920031
  exchange ACFDT corr.  =        -0.14578046  see jH, gK, PRB 81, 115126


--------------------------------------------------------------------------------------------------------




--------------------------------------- Iteration      1(   6)  ---------------------------------------


    POTLOK:  cpu time    0.1325: real time    0.1325
    SETDIJ:  cpu time    0.0434: real time    0.0434
    TRIAL :  cpu time    9.3823: real time    9.3835
    CORREC:  cpu time    9.3441: real time    9.3452
    CHARGE:  cpu time    0.0220: real time    0.0220
    --------------------------------------------
      LOOP:  cpu time   18.9247: real time   18.9270

 eigenvalue-minimisations  :     0
 total energy-change (2. order) :-0.2049997E-02  (-0.4357934E-03)
 number of electron     859.9999991 magnetization       1.9999999
 augmentation part       19.9763363 magnetization       0.1366623

 Free energy of the ion-electron system (eV)
  ---------------------------------------------------
  alpha Z        PSCENC =      3112.96981489
  Ewald energy   TEWEN  =    -37448.55501798
  -Hartree energ DENC   =     -2870.72438799
  -exchange      EXHF   =      1981.67346470
  -V(xc)+E(xc)   XCENC  =      2424.50433835
  PAW double counting   =     14874.97986059   -15057.87917883
  entropy T*S    EENTRO =         0.00000000
  eigenvalues    EBANDS =      -483.05839090
  atomic energy  EATOM  =     31057.15824686
  ---------------------------------------------------
  free energy    TOTEN  =     -2408.93125030 eV

  energy without entropy =    -2408.93125030  energy(sigma->0) =    -2408.93125030
  exchange ACFDT corr.  =        -0.14584790  see jH, gK, PRB 81, 115126


--------------------------------------------------------------------------------------------------------




--------------------------------------- Iteration      1(   7)  ---------------------------------------


    POTLOK:  cpu time    0.1324: real time    0.1324
    SETDIJ:  cpu time    0.0429: real time    0.0429
    TRIAL :  cpu time    9.3699: real time    9.3710
    CORREC:  cpu time    9.3377: real time    9.3388
    CHARGE:  cpu time    0.0221: real time    0.0221
    --------------------------------------------
      LOOP:  cpu time   18.9053: real time   18.9076

 eigenvalue-minimisations  :     0
 total energy-change (2. order) :-0.4406185E-03  (-0.8115047E-04)
 number of electron     859.9999991 magnetization       1.9999999
 augmentation part       19.9765337 magnetization       0.1366678

 Free energy of the ion-electron system (eV)
  ---------------------------------------------------
  alpha Z        PSCENC =      3112.96981489
  Ewald energy   TEWEN  =    -37448.55501798
  -Hartree energ DENC   =     -2870.64067121
  -exchange      EXHF   =      1981.66974833
  -V(xc)+E(xc)   XCENC  =      2424.49757710
  PAW double counting   =     14875.38409914   -15058.28305683
  entropy T*S    EENTRO =         0.00000000
  eigenvalues    EBANDS =      -483.13243122
  atomic energy  EATOM  =     31057.15824686
  ---------------------------------------------------
  free energy    TOTEN  =     -2408.93169092 eV

  energy without entropy =    -2408.93169092  energy(sigma->0) =    -2408.93169092
  exchange ACFDT corr.  =        -0.14588084  see jH, gK, PRB 81, 115126


--------------------------------------------------------------------------------------------------------




--------------------------------------- Iteration      1(   8)  ---------------------------------------


    POTLOK:  cpu time    0.1324: real time    0.1324
    SETDIJ:  cpu time    0.0440: real time    0.0440
    TRIAL :  cpu time    9.3864: real time    9.3874
    CORREC:  cpu time    9.3559: real time    9.3568
    CHARGE:  cpu time    0.0220: real time    0.0220
    --------------------------------------------
      LOOP:  cpu time   18.9411: real time   18.9430

 eigenvalue-minimisations  :     0
 total energy-change (2. order) :-0.8069479E-04  (-0.2162011E-04)
 number of electron     859.9999991 magnetization       1.9999999
 augmentation part       19.9764959 magnetization       0.1366792

 Free energy of the ion-electron system (eV)
  ---------------------------------------------------
  alpha Z        PSCENC =      3112.96981489
  Ewald energy   TEWEN  =    -37448.55501798
  -Hartree energ DENC   =     -2870.67143887
  -exchange      EXHF   =      1981.67228564
  -V(xc)+E(xc)   XCENC  =      2424.49970860
  PAW double counting   =     14875.80186311   -15058.69981539
  entropy T*S    EENTRO =         0.00000000
  eigenvalues    EBANDS =      -483.10741849
  atomic energy  EATOM  =     31057.15824686
  ---------------------------------------------------
  free energy    TOTEN  =     -2408.93177162 eV

  energy without entropy =    -2408.93177162  energy(sigma->0) =    -2408.93177162
  exchange ACFDT corr.  =        -0.14590858  see jH, gK, PRB 81, 115126


--------------------------------------------------------------------------------------------------------




--------------------------------------- Iteration      1(   9)  ---------------------------------------


    POTLOK:  cpu time    0.1325: real time    0.1325
    SETDIJ:  cpu time    0.0434: real time    0.0434
    TRIAL :  cpu time    9.3963: real time    9.3970
    CORREC:  cpu time    9.3269: real time    9.3277
    CHARGE:  cpu time    0.0222: real time    0.0222
    --------------------------------------------
      LOOP:  cpu time   18.9217: real time   18.9232

 eigenvalue-minimisations  :     0
 total energy-change (2. order) :-0.2137124E-04  (-0.7361090E-05)
 number of electron     859.9999991 magnetization       1.9999999
 augmentation part       19.9762920 magnetization       0.1366910

 Free energy of the ion-electron system (eV)
  ---------------------------------------------------
  alpha Z        PSCENC =      3112.96981489
  Ewald energy   TEWEN  =    -37448.55501798
  -Hartree energ DENC   =     -2870.68134351
  -exchange      EXHF   =      1981.67266713
  -V(xc)+E(xc)   XCENC  =      2424.50050040
  PAW double counting   =     14875.85934278   -15058.75666788
  entropy T*S    EENTRO =         0.00000000
  eigenvalues    EBANDS =      -483.09933568
  atomic energy  EATOM  =     31057.15824686
  ---------------------------------------------------
  free energy    TOTEN  =     -2408.93179299 eV

  energy without entropy =    -2408.93179299  energy(sigma->0) =    -2408.93179299
  exchange ACFDT corr.  =        -0.14592764  see jH, gK, PRB 81, 115126


--------------------------------------------------------------------------------------------------------




--------------------------------------- Iteration      1(  10)  ---------------------------------------


    POTLOK:  cpu time    0.1324: real time    0.1324
    SETDIJ:  cpu time    0.0439: real time    0.0439
    TRIAL :  cpu time    9.3787: real time    9.3797
    CORREC:  cpu time    9.3753: real time    9.3761
    CHARGE:  cpu time    0.0222: real time    0.0222
    --------------------------------------------
      LOOP:  cpu time   18.9529: real time   18.9547

 eigenvalue-minimisations  :     0
 total energy-change (2. order) :-0.7254552E-05  (-0.2002374E-05)
 number of electron     859.9999991 magnetization       1.9999999
 augmentation part       19.9762196 magnetization       0.1366935

 Free energy of the ion-electron system (eV)
  ---------------------------------------------------
  alpha Z        PSCENC =      3112.96981489
  Ewald energy   TEWEN  =    -37448.55501798
  -Hartree energ DENC   =     -2870.67325471
  -exchange      EXHF   =      1981.67183990
  -V(xc)+E(xc)   XCENC  =      2424.49997333
  PAW double counting   =     14875.77263905   -15058.66961898
  entropy T*S    EENTRO =         0.00000000
  eigenvalues    EBANDS =      -483.10642260
  atomic energy  EATOM  =     31057.15824686
  ---------------------------------------------------
  free energy    TOTEN  =     -2408.93180024 eV

  energy without entropy =    -2408.93180024  energy(sigma->0) =    -2408.93180024
  exchange ACFDT corr.  =        -0.14594047  see jH, gK, PRB 81, 115126


--------------------------------------------------------------------------------------------------------


  average scaling for gradient   1.1742


 average (electrostatic) potential at core
  the test charge radii are     0.9892  0.6991
  (the norm of the test charge is              1.0000)
       1 -74.5666       2 -41.5323       3 -41.6405       4 -41.5958       5 -41.6543
       6 -41.6689       7 -41.6763       8 -41.3554       9 -41.6281      10 -41.5700
      11 -41.5721      12 -41.6534      13 -41.6429      14 -41.6399      15 -41.6803
      16 -41.6629      17 -41.5494      18 -41.6095      19 -41.6096      20 -41.5363
      21 -41.6237      22 -41.5569      23 -41.6408      24 -41.6571      25 -41.6800
      26 -40.4557      27 -41.6331      28 -41.5613      29 -41.5834      30 -41.5780
      31 -41.6124      32 -41.6525      33 -41.6492      34 -41.5957      35 -41.6618
      36 -41.6795      37 -41.4654      38 -41.6183      39 -41.6066      40 -41.6128
      41 -41.6269      42 -41.6334      43 -41.6321      44 -41.6335      45 -41.6799
      46 -41.5013      47 -41.5512      48 -41.6204      49 -41.5604      50 -41.6494
      51 -41.6618      52 -41.6270      53 -41.6630      54 -41.6763      55 -41.5299
      56 -41.6322      57 -41.3452      58 -41.6477      59 -41.6647      60 -41.6354
      61 -41.5974      62 -41.6680      63 -41.5983      64 -41.5709      65 -41.6326
      66 -41.5544      67 -41.6548      68 -41.6810      69 -41.6128      70 -41.6374
      71 -41.6615      72 -41.6128      73 -41.4896      74 -41.6239      75 -40.4100
      76 -41.6385      77 -41.6521      78 -41.6575      79 -41.5764      80 -41.6714
      81 -41.5608      82 -40.8101      83 -41.6234      84 -41.4898      85 -41.6394
      86 -41.6836      87 -41.6729      88 -41.5160      89 -41.6550      90 -41.6013
      91 -41.5308      92 -41.6416      93 -41.4500      94 -41.6551      95 -41.6587
      96 -41.6830      97 -41.4574      98 -41.6789      99 -41.6154     100 -41.5493
     101 -41.6374     102 -41.5701     103 -41.6454     104 -41.6776     105 -41.6610
     106 -41.5615     107 -41.6557     108 -41.6072     109 -41.6024     110 -41.6535
     111 -41.5191     112 -41.6727     113 -41.6836     114 -41.6410     115 -41.4871
     116 -41.6217     117 -40.8123     118 -41.6054     119 -41.6571     120 -41.5628
     121 -41.6599     122 -41.6772     123 -41.6463     124 -41.5698     125 -41.6372
     126 -41.5531     127 -41.6136     128 -41.6798     129 -41.4552     130 -41.6824
     131 -41.6590     132 -41.6555     133 -41.4466     134 -41.6420     135 -41.5315
     136 -40.4086     137 -41.6252     138 -41.4964     139 -41.5626     140 -41.6697
     141 -41.5787     142 -41.6591     143 -41.6526     144 -41.6409     145 -41.5514
     146 -41.6324     147 -41.5723     148 -41.6113     149 -41.6617     150 -41.6382
     151 -41.6125     152 -41.6811     153 -41.6557     154 -41.3398     155 -41.6334
     156 -41.5302     157 -41.5973     158 -41.6671     159 -41.5950     160 -41.6354
     161 -41.6652     162 -41.6469     163 -41.5827     164 -41.5847     165 -41.5953
     166 -41.6796     167 -41.6625     168 -41.6096     169 -41.6497     170 -41.6531
     171 -41.5008     172 -41.6197     173 -41.5513     174 -41.6263     175 -41.6755
     176 -41.6632     177 -41.5640     178 -41.6614     179 -41.6507     180 -41.4621
     181 -41.6069     182 -41.6183     183 -41.6294     184 -41.6785     185 -41.6329
     186 -41.6128     187 -41.6323     188 -41.6281     189 -40.4588     190 -41.5637
     191 -41.6345     192 -41.6396     193 -41.6814     194 -41.6578     195 -41.5330
     196 -41.5584     197 -41.6247     198 -41.5495     199 -41.6083     200 -41.6099
     201 -41.6403     202 -41.6614     203 -41.6799     204 -41.5756     205 -41.6422
     206 -41.6544     207 -41.3545     208 -41.5671     209 -41.6270     210 -41.6539
     211 -41.6748     212 -41.6682     213 -41.5309     214 -41.5923     215 -41.6415
 
 
 
 E-fermi :   0.0200     XC(G=0): -10.8433     alpha+bet :-18.0036


 spin component 1

 k-point     1 :       0.0000    0.0000    0.0000
  band No.  band energies     occupation 
      1     -14.4189      1.00000
      2     -13.3510      1.00000
      3     -13.3482      1.00000
      4     -13.3433      1.00000
      5     -13.3307      1.00000
      6     -13.2507      1.00000
      7     -13.1578      1.00000
      8     -12.2716      1.00000
      9     -12.2542      1.00000
     10     -12.2389      1.00000
     11     -12.2488      1.00000
     12     -12.2303      1.00000
     13     -12.2363      1.00000
     14     -12.2199      1.00000
     15     -12.1784      1.00000
     16     -12.1799      1.00000
     17     -12.1821      1.00000
     18     -12.0672      1.00000
     19     -11.8780      1.00000
     20     -11.1499      1.00000
     21     -11.1474      1.00000
     22     -11.1412      1.00000
     23     -11.1264      1.00000
     24     -11.1156      1.00000
     25     -11.1088      1.00000
     26     -11.0381      1.00000
     27     -10.8445      1.00000
     28     -10.0396      1.00000
     29     -10.0482      1.00000
     30     -10.0179      1.00000
     31     -10.0164      1.00000
     32      -9.9650      1.00000
     33      -9.9226      1.00000
     34      -9.0797      1.00000
     35      -9.0703      1.00000
     36      -9.0381      1.00000
     37      -9.0390      1.00000
     38      -9.0292      1.00000
     39      -9.0353      1.00000
     40      -9.0368      1.00000
     41      -9.0252      1.00000
     42      -9.0200      1.00000
     43      -9.0174      1.00000
     44      -9.0199      1.00000
     45      -9.0172      1.00000
     46      -8.9924      1.00000
     47      -9.0001      1.00000
     48      -8.9827      1.00000
     49      -8.9868      1.00000
     50      -8.9849      1.00000
     51      -8.9506      1.00000
     52      -8.9442      1.00000
     53      -8.9203      1.00000
     54      -8.9217      1.00000
     55      -8.9080      1.00000
     56      -8.7298      1.00000
     57      -8.6495      1.00000
     58      -8.2005      1.00000
     59      -8.1928      1.00000
     60      -8.2068      1.00000
     61      -8.1845      1.00000
     62      -8.1629      1.00000
     63      -8.1609      1.00000
     64      -8.1665      1.00000
     65      -8.1568      1.00000
     66      -8.1574      1.00000
     67      -8.1490      1.00000
     68      -8.1549      1.00000
     69      -8.1387      1.00000
     70      -8.1511      1.00000
     71      -8.1176      1.00000
     72      -8.1370      1.00000
     73      -8.0752      1.00000
     74      -8.0884      1.00000
     75      -8.0648      1.00000
     76      -8.0537      1.00000
     77      -8.0479      1.00000
     78      -8.0321      1.00000
     79      -8.0113      1.00000
     80      -7.5076      1.00000
     81      -7.0171      1.00000
     82      -6.3250      1.00000
     83      -6.3232      1.00000
     84      -6.3296      1.00000
     85      -6.2990      1.00000
     86      -6.2780      1.00000
     87      -6.2880      1.00000
     88      -6.2760      1.00000
     89      -6.2746      1.00000
     90      -6.2181      1.00000
     91      -6.2269      1.00000
     92      -6.0293      1.00000
     93      -5.6258      1.00000
     94      -4.8805      1.00000
     95      -4.8766      1.00000
     96      -4.8460      1.00000
     97      -4.8282      1.00000
     98      -4.8359      1.00000
     99      -4.7757      1.00000
    100      -4.3457      1.00000
    101      -4.3552      1.00000
    102      -4.3310      1.00000
    103      -4.3196      1.00000
    104      -4.3170      1.00000
    105      -4.3159      1.00000
    106      -4.3034      1.00000
    107      -4.3017      1.00000
    108      -4.2839      1.00000
    109      -4.2840      1.00000
    110      -4.2885      1.00000
    111      -4.2730      1.00000
    112      -4.2746      1.00000
    113      -4.2481      1.00000
    114      -4.2273      1.00000
    115      -4.2340      1.00000
    116      -4.2203      1.00000
    117      -4.2291      1.00000
    118      -4.1648      1.00000
    119      -4.1716      1.00000
    120      -4.1637      1.00000
    121      -4.1570      1.00000
    122      -4.0977      1.00000
    123      -4.0807      1.00000
    124      -4.0361      1.00000
    125      -4.0134      1.00000
    126      -4.0278      1.00000
    127      -4.0322      1.00000
    128      -4.0309      1.00000
    129      -4.0120      1.00000
    130      -3.9983      1.00000
    131      -3.9908      1.00000
    132      -3.9882      1.00000
    133      -3.9867      1.00000
    134      -3.9960      1.00000
    135      -3.9965      1.00000
    136      -3.9850      1.00000
    137      -3.9824      1.00000
    138      -3.9789      1.00000
    139      -3.9745      1.00000
    140      -3.9677      1.00000
    141      -3.8896      1.00000
    142      -3.8901      1.00000
    143      -3.7444      1.00000
    144      -3.6858      1.00000
    145      -3.6886      1.00000
    146      -3.2750      1.00000
    147      -3.1383      1.00000
    148      -2.8703      1.00000
    149      -2.8448      1.00000
    150      -2.8496      1.00000
    151      -2.8267      1.00000
    152      -2.8266      1.00000
    153      -2.8096      1.00000
    154      -2.7839      1.00000
[...]
    4ORBIT:  cpu time    0.0000: real time    0.0000
 


 total charge     
 
# of ion       s       p       d       tot
------------------------------------------
    1        0.694   0.975   0.000   1.669
    2        0.836   1.737   0.000   2.574
    3        0.837   1.755   0.000   2.592
    4        0.839   1.761   0.000   2.600
    5        0.839   1.761   0.000   2.600
    6        0.839   1.761   0.000   2.600
    7        0.839   1.763   0.000   2.602
    8        0.843   1.771   0.000   2.614
    9        0.839   1.763   0.000   2.602
   10        0.842   1.768   0.000   2.611
   11        0.839   1.762   0.000   2.601
   12        0.839   1.761   0.000   2.599
   13        0.839   1.762   0.000   2.601
   14        0.840   1.763   0.000   2.602
   15        0.839   1.761   0.000   2.600
   16        0.839   1.764   0.000   2.603
   17        0.839   1.762   0.000   2.600
   18        0.840   1.767   0.000   2.607
   19        0.838   1.761   0.000   2.600
   20        0.843   1.764   0.000   2.607
   21        0.839   1.764   0.000   2.603
   22        0.842   1.769   0.000   2.611
   23        0.839   1.761   0.000   2.599
   24        0.840   1.767   0.000   2.607
   25        0.839   1.760   0.000   2.598
   26        0.848   1.766   0.000   2.613
   27        0.839   1.760   0.000   2.599
   28        0.837   1.753   0.000   2.590
   29        0.838   1.752   0.000   2.590
   30        0.839   1.764   0.000   2.602
   31        0.838   1.752   0.000   2.590
   32        0.839   1.749   0.000   2.587
   33        0.840   1.766   0.000   2.606
   34        0.839   1.764   0.000   2.602
   35        0.840   1.766   0.000   2.606
   36        0.838   1.758   0.000   2.597
   37        0.838   1.754   0.000   2.592
   38        0.839   1.747   0.000   2.586
   39        0.840   1.767   0.000   2.607
   40        0.839   1.748   0.000   2.587
   41        0.839   1.762   0.000   2.601
   42        0.839   1.765   0.000   2.604
   43        0.840   1.766   0.000   2.606
   44        0.839   1.765   0.000   2.604
   45        0.839   1.762   0.000   2.601
   46        0.839   1.764   0.000   2.603
   47        0.840   1.768   0.000   2.609
   48        0.838   1.760   0.000   2.598
   49        0.840   1.768   0.000   2.609
   50        0.839   1.764   0.000   2.603
   51        0.839   1.762   0.000   2.601
   52        0.838   1.760   0.000   2.598
   53        0.839   1.762   0.000   2.601
   54        0.839   1.759   0.000   2.598
   55        0.836   1.737   0.000   2.574
   56        0.839   1.762   0.000   2.600
   57        0.843   1.772   0.000   2.615
   58        0.837   1.755   0.000   2.592
   59        0.839   1.761   0.000   2.600
   60        0.839   1.763   0.000   2.602
   61        0.839   1.761   0.000   2.600
   62        0.839   1.763   0.000   2.602
   63        0.842   1.767   0.000   2.610
   64        0.839   1.762   0.000   2.601
   65        0.840   1.763   0.000   2.602
   66        0.839   1.761   0.000   2.600
   67        0.839   1.761   0.000   2.600
   68        0.839   1.761   0.000   2.600
   69        0.840   1.767   0.000   2.607
   70        0.839   1.762   0.000   2.601
   71        0.839   1.764   0.000   2.603
   72        0.838   1.761   0.000   2.600
   73        0.843   1.767   0.000   2.610
   74        0.839   1.761   0.000   2.599
   75        0.848   1.768   0.000   2.616
   76        0.839   1.764   0.000   2.603
   77        0.840   1.767   0.000   2.607
   78        0.839   1.760   0.000   2.599
   79        0.842   1.768   0.000   2.611
   80        0.839   1.760   0.000   2.599
   81        0.837   1.753   0.000   2.590
   82        0.847   1.748   0.000   2.596
   83        0.838   1.761   0.000   2.600
   84        0.843   1.765   0.000   2.608
   85        0.838   1.761   0.000   2.600
   86        0.840   1.762   0.000   2.602
   87        0.839   1.761   0.000   2.600
   88        0.843   1.764   0.000   2.606
   89        0.839   1.761   0.000   2.600
   90        0.836   1.738   0.000   2.573
   91        0.838   1.752   0.000   2.589
   92        0.839   1.761   0.000   2.599
   93        0.842   1.773   0.000   2.616
   94        0.839   1.760   0.000   2.599
   95        0.839   1.765   0.000   2.604
   96        0.839   1.761   0.000   2.600
   97        0.842   1.773   0.000   2.615
   98        0.839   1.761   0.000   2.600
   99        0.839   1.761   0.000   2.600
  100        0.839   1.762   0.000   2.601
  101        0.840   1.767   0.000   2.606
  102        0.839   1.764   0.000   2.603
  103        0.840   1.767   0.000   2.606
  104        0.839   1.762   0.000   2.601
  105        0.839   1.761   0.000   2.599
  106        0.839   1.764   0.000   2.603
  107        0.839   1.761   0.000   2.599
  108        0.837   1.755   0.000   2.592
  109        0.836   1.738   0.000   2.573
  110        0.839   1.761   0.000   2.600
  111        0.843   1.764   0.000   2.606
  112        0.839   1.761   0.000   2.600
  113        0.840   1.762   0.000   2.602
  114        0.838   1.761   0.000   2.600
  115        0.843   1.765   0.000   2.608
  116        0.838   1.762   0.000   2.600
  117        0.847   1.748   0.000   2.595
  118        0.837   1.755   0.000   2.592
  119        0.839   1.760   0.000   2.599
  120        0.839   1.764   0.000   2.603
  121        0.839   1.761   0.000   2.599
  122        0.839   1.762   0.000   2.601
  123        0.840   1.767   0.000   2.606
  124        0.839   1.764   0.000   2.603
  125        0.840   1.767   0.000   2.606
  126        0.839   1.762   0.000   2.601
  127        0.839   1.761   0.000   2.600
  128        0.839   1.761   0.000   2.600
  129        0.842   1.773   0.000   2.615
  130        0.839   1.761   0.000   2.600
  131        0.839   1.765   0.000   2.604
  132        0.839   1.760   0.000   2.599
  133        0.842   1.773   0.000   2.616
  134        0.839   1.761   0.000   2.599
  135        0.838   1.752   0.000   2.589
  136        0.848   1.769   0.000   2.616
  137        0.839   1.761   0.000   2.599
  138        0.843   1.766   0.000   2.609
  139        0.837   1.753   0.000   2.590
  140        0.839   1.760   0.000   2.599
  141        0.842   1.768   0.000   2.611
  142        0.839   1.760   0.000   2.598
  143        0.840   1.767   0.000   2.607
  144        0.839   1.764   0.000   2.603
  145        0.839   1.761   0.000   2.600
  146        0.840   1.763   0.000   2.602
  147        0.839   1.762   0.000   2.601
  148        0.838   1.761   0.000   2.600
  149        0.839   1.764   0.000   2.603
  150        0.839   1.762   0.000   2.601
  151        0.840   1.767   0.000   2.607
  152        0.839   1.761   0.000   2.600
  153        0.839   1.761   0.000   2.600
  154        0.843   1.772   0.000   2.615
  155        0.839   1.761   0.000   2.600
  156        0.836   1.737   0.000   2.574
  157        0.842   1.767   0.000   2.610
  158        0.839   1.763   0.000   2.602
  159        0.839   1.762   0.000   2.600
  160        0.839   1.763   0.000   2.602
  161        0.839   1.761   0.000   2.600
  162        0.837   1.755   0.000   2.592
  163        0.839   1.763   0.000   2.602
  164        0.838   1.752   0.000   2.590
  165        0.839   1.764   0.000   2.602
  166        0.838   1.758   0.000   2.597
  167        0.840   1.766   0.000   2.606
  168        0.838   1.752   0.000   2.590
  169        0.840   1.766   0.000   2.606
  170        0.839   1.749   0.000   2.587
  171        0.839   1.764   0.000   2.603
  172        0.838   1.760   0.000   2.598
  173        0.840   1.769   0.000   2.609
  174        0.838   1.760   0.000   2.598
  175        0.839   1.759   0.000   2.598
  176        0.839   1.762   0.000   2.601
  177        0.840   1.768   0.000   2.609
  178        0.839   1.762   0.000   2.601
  179        0.839   1.764   0.000   2.603
  180        0.838   1.754   0.000   2.592
  181        0.840   1.767   0.000   2.607
  182        0.839   1.747   0.000   2.586
  183        0.840   1.766   0.000   2.606
  184        0.839   1.762   0.000   2.601
  185        0.839   1.765   0.000   2.604
  186        0.839   1.748   0.000   2.587
  187        0.839   1.765   0.000   2.604
  188        0.839   1.762   0.000   2.601
  189        0.848   1.766   0.000   2.613
  190        0.837   1.752   0.000   2.590
  191        0.839   1.760   0.000   2.599
  192        0.839   1.761   0.000   2.599
  193        0.839   1.760   0.000   2.598
  194        0.840   1.767   0.000   2.607
  195        0.843   1.765   0.000   2.608
  196        0.842   1.769   0.000   2.611
  197        0.839   1.764   0.000   2.603
  198        0.839   1.762   0.000   2.600
  199        0.838   1.761   0.000   2.600
  200        0.840   1.767   0.000   2.607
  201        0.840   1.763   0.000   2.602
  202        0.839   1.764   0.000   2.603
  203        0.839   1.761   0.000   2.600
  204        0.839   1.762   0.000   2.601
  205        0.839   1.762   0.000   2.601
  206        0.839   1.761   0.000   2.599
  207        0.843   1.771   0.000   2.614
  208        0.842   1.769   0.000   2.611
  209        0.839   1.763   0.000   2.602
  210        0.839   1.761   0.000   2.600
  211        0.839   1.763   0.000   2.602
  212        0.839   1.761   0.000   2.600
  213        0.836   1.737   0.000   2.574
  214        0.839   1.761   0.000   2.600
  215        0.837   1.755   0.000   2.592
--------------------------------------------------
tot        180.339 377.898   0.000 558.237
 


 magnetization (x)
 
# of ion       s       p       d       tot
------------------------------------------
    1       -0.009   0.060   0.000   0.050
    2       -0.001   0.004   0.000   0.003
    3       -0.000   0.001   0.000   0.001
    4       -0.000   0.000   0.000   0.000
    5       -0.000   0.001   0.000   0.001
    6       -0.000   0.001   0.000   0.001
    7        0.000   0.003   0.000   0.003
    8       -0.000   0.007   0.000   0.007
    9       -0.000   0.002   0.000   0.002
   10        0.001   0.014   0.000   0.015
   11       -0.000   0.000   0.000   0.000
   12        0.000   0.001   0.000   0.001
   13        0.000   0.004   0.000   0.004
   14        0.000   0.003   0.000   0.003
   15        0.000   0.002   0.000   0.002
   16        0.000   0.002   0.000   0.002
   17        0.000   0.001   0.000   0.001
   18        0.000   0.003   0.000   0.003
   19       -0.000   0.000   0.000   0.000
   20        0.000   0.015   0.000   0.015
   21       -0.000   0.001   0.000   0.000
   22        0.001   0.012   0.000   0.013
   23        0.000   0.002   0.000   0.002
   24        0.000   0.002   0.000   0.002
   25        0.000   0.003   0.000   0.003
   26        0.007   0.082   0.000   0.089
   27        0.000   0.004   0.000   0.004
   28        0.000   0.005   0.000   0.005
   29       -0.000   0.004   0.000   0.004
   30       -0.000   0.001   0.000   0.001
   31       -0.000   0.004   0.000   0.004
   32        0.001   0.011   0.000   0.012
   33        0.000   0.005   0.000   0.006
   34       -0.000   0.001   0.000   0.001
   35        0.000   0.006   0.000   0.006
   36        0.000   0.002   0.000   0.002
   37        0.000   0.002   0.000   0.002
   38        0.001   0.014   0.000   0.014
   39        0.000   0.005   0.000   0.005
   40        0.001   0.013   0.000   0.014
   41       -0.000   0.001   0.000   0.001
   42        0.000   0.001   0.000   0.001
   43        0.000   0.006   0.000   0.006
   44        0.000   0.001   0.000   0.001
   45        0.000   0.002   0.000   0.002
   46       -0.000   0.001   0.000   0.001
   47        0.000   0.002   0.000   0.003
   48        0.000   0.001   0.000   0.001
   49        0.000   0.003   0.000   0.003
   50        0.000   0.003   0.000   0.003
   51       -0.000   0.001   0.000   0.001
   52        0.000   0.001   0.000   0.001
   53       -0.000   0.002   0.000   0.002
   54        0.000   0.002   0.000   0.002
   55       -0.001   0.005   0.000   0.004
   56       -0.000   0.001   0.000   0.001
   57       -0.000   0.006   0.000   0.006
   58       -0.000   0.001   0.000   0.001
   59       -0.000   0.001   0.000   0.001
   60       -0.000   0.002   0.000   0.002
   61       -0.000  -0.000   0.000  -0.000
   62        0.000   0.003   0.000   0.003
   63        0.001   0.015   0.000   0.016
   64       -0.000   0.000   0.000   0.000
   65        0.000   0.003   0.000   0.003
   66        0.000   0.002   0.000   0.002
   67        0.000   0.001   0.000   0.001
   68        0.000   0.002   0.000   0.003
   69        0.000   0.002   0.000   0.002
   70        0.000   0.003   0.000   0.004
   71        0.000   0.002   0.000   0.002
   72        0.000   0.001   0.000   0.001
   73        0.000   0.012   0.000   0.012
   74        0.000   0.002   0.000   0.002
   75        0.006   0.077   0.000   0.083
   76       -0.000   0.001   0.000   0.000
   77        0.000   0.002   0.000   0.002
   78        0.000   0.004   0.000   0.005
   79        0.001   0.013   0.000   0.014
   80        0.000   0.002   0.000   0.002
   81        0.000   0.004   0.000   0.004
   82        0.012   0.120   0.000   0.132
   83        0.000   0.001   0.000   0.001
   84        0.001   0.015   0.000   0.015
   85        0.000   0.001   0.000   0.001
   86        0.000   0.004   0.000   0.004
   87       -0.000   0.002   0.000   0.002
   88        0.001   0.016   0.000   0.017
   89       -0.000   0.001   0.000   0.001
   90       -0.001   0.001   0.000  -0.000
   91        0.000   0.007   0.000   0.007
   92        0.000   0.002   0.000   0.002
   93        0.001   0.008   0.000   0.008
   94        0.000   0.002   0.000   0.002
   95        0.000   0.001   0.000   0.001
   96        0.000   0.005   0.000   0.005
   97        0.001   0.008   0.000   0.008
   98        0.000   0.005   0.000   0.005
   99       -0.000   0.001   0.000   0.001
  100       -0.000   0.001   0.000   0.001
  101        0.000   0.003   0.000   0.004
  102       -0.000   0.001   0.000   0.001
  103        0.000   0.003   0.000   0.004
  104        0.000   0.002   0.000   0.002
  105        0.000   0.002   0.000   0.002
  106       -0.000   0.001   0.000   0.001
  107        0.000   0.002   0.000   0.002
  108       -0.000   0.000   0.000   0.000
  109       -0.001   0.001   0.000   0.000
  110       -0.000   0.001   0.000   0.001
  111        0.001   0.016   0.000   0.017
  112       -0.000   0.002   0.000   0.002
  113        0.000   0.004   0.000   0.004
  114        0.000   0.001   0.000   0.001
  115        0.001   0.015   0.000   0.016
  116        0.000   0.001   0.000   0.001
  117        0.012   0.120   0.000   0.132
  118       -0.000   0.000   0.000   0.000
  119        0.000   0.002   0.000   0.002
  120       -0.000   0.001   0.000   0.001
  121        0.000   0.002   0.000   0.002
  122        0.000   0.002   0.000   0.002
  123        0.000   0.003   0.000   0.004
  124       -0.000   0.001   0.000   0.001
  125        0.000   0.003   0.000   0.004
  126        0.000   0.001   0.000   0.001
  127       -0.000   0.001   0.000   0.001
  128        0.000   0.005   0.000   0.005
  129        0.001   0.008   0.000   0.008
  130        0.000   0.005   0.000   0.005
  131        0.000   0.001   0.000   0.001
  132        0.000   0.002   0.000   0.002
  133        0.001   0.008   0.000   0.008
  134        0.000   0.002   0.000   0.002
  135        0.000   0.007   0.000   0.007
  136        0.006   0.076   0.000   0.083
  137        0.000   0.002   0.000   0.002
  138        0.000   0.012   0.000   0.012
  139        0.000   0.004   0.000   0.004
  140        0.000   0.002   0.000   0.002
  141        0.001   0.013   0.000   0.015
  142        0.000   0.005   0.000   0.005
  143        0.000   0.002   0.000   0.002
  144       -0.000   0.001   0.000   0.001
  145        0.000   0.002   0.000   0.002
  146        0.000   0.003   0.000   0.003
  147       -0.000   0.000   0.000   0.000
  148       -0.000   0.001   0.000   0.001
  149        0.000   0.002   0.000   0.002
  150        0.000   0.004   0.000   0.004
  151        0.000   0.002   0.000   0.002
  152        0.000   0.002   0.000   0.003
  153        0.000   0.001   0.000   0.001
  154       -0.000   0.006   0.000   0.006
  155       -0.000   0.001   0.000   0.001
  156       -0.001   0.005   0.000   0.004
  157        0.001   0.015   0.000   0.016
  158        0.000   0.003   0.000   0.003
  159       -0.000  -0.000   0.000  -0.000
  160       -0.000   0.002   0.000   0.002
  161       -0.000   0.001   0.000   0.001
  162       -0.000   0.001   0.000   0.001
  163       -0.000   0.001   0.000   0.001
  164       -0.000   0.004   0.000   0.004
  165       -0.000   0.001   0.000   0.001
  166        0.000   0.002   0.000   0.002
  167        0.000   0.006   0.000   0.006
  168       -0.000   0.004   0.000   0.004
  169        0.000   0.005   0.000   0.006
  170        0.001   0.011   0.000   0.012
  171       -0.000   0.001   0.000   0.001
  172        0.000   0.001   0.000   0.001
  173        0.000   0.003   0.000   0.003
  174        0.000   0.001   0.000   0.001
  175        0.000   0.002   0.000   0.002
  176       -0.000   0.002   0.000   0.002
  177        0.000   0.003   0.000   0.003
  178       -0.000   0.001   0.000   0.001
  179        0.000   0.003   0.000   0.003
  180        0.000   0.002   0.000   0.002
  181        0.000   0.005   0.000   0.005
  182        0.001   0.014   0.000   0.014
  183        0.000   0.006   0.000   0.006
  184        0.000   0.002   0.000   0.002
  185        0.000   0.001   0.000   0.001
  186        0.001   0.013   0.000   0.014
  187        0.000   0.001   0.000   0.001
  188       -0.000   0.001   0.000   0.001
  189        0.007   0.082   0.000   0.089
  190        0.000   0.005   0.000   0.005
  191        0.000   0.004   0.000   0.004
  192        0.000   0.002   0.000   0.002
  193        0.000   0.003   0.000   0.003
  194        0.000   0.002   0.000   0.002
  195        0.000   0.015   0.000   0.015
  196        0.001   0.012   0.000   0.013
  197       -0.000   0.001   0.000   0.000
  198        0.000   0.001   0.000   0.001
  199       -0.000   0.000   0.000   0.000
  200        0.000   0.003   0.000   0.003
  201        0.000   0.003   0.000   0.003
  202        0.000   0.001   0.000   0.002
  203        0.000   0.002   0.000   0.002
  204       -0.000   0.001   0.000   0.000
  205        0.000   0.004   0.000   0.004
  206        0.000   0.001   0.000   0.001
  207       -0.000   0.007   0.000   0.007
  208        0.001   0.014   0.000   0.015
  209       -0.000   0.002   0.000   0.002
  210       -0.000   0.001   0.000   0.001
  211        0.000   0.003   0.000   0.003
  212       -0.000   0.001   0.000   0.001
  213       -0.001   0.004   0.000   0.003
  214       -0.000   0.000   0.000  -0.000
  215       -0.000   0.001   0.000   0.001
--------------------------------------------------
tot          0.064   1.361   0.000   1.425
 

 total amount of memory used by VASP MPI-rank0    40004. kBytes
=======================================================================

   base      :      30000. kBytes
   nonlr-proj:       3647. kBytes
   fftplans  :       1350. kBytes
   grid      :       3557. kBytes
   one-center:         43. kBytes
   HF        :          9. kBytes
   wavefun   :       1398. kBytes
 
  
  
 General timing and accounting informations for this job:
 ========================================================
  
                  Total CPU time used (sec):     1471.483
                            User time (sec):     1466.667
                          System time (sec):        4.816
                         Elapsed time (sec):     1472.630
  
                   Maximum memory used (kb):      416008.
                   Average memory used (kb):           0.
  
                          Minor page faults:        86027
                          Major page faults:          325
                 Voluntary context switches:          667
