 vasp.5.4.4.18Apr17-6-g9f103f2a35 (build Dec 19 2024 10:44:08) gamma-only        
 executed on NVIDIA22.7_CrayMPICH date 2025.02.14  10:54:55
 running on  512 total cores
 distrk:  each k-point on  512 cores,    1 groups
 distr:  one band on NCORES_PER_BAND=  16 cores,   32 groups


--------------------------------------------------------------------------------------------------------


 INCAR:
 POTCAR:   PAW_PBE Si 05Jan2001                   
 POTCAR:   PAW_PBE C 08Apr2002                    
 POTCAR:   PAW_PBE Si 05Jan2001                   
   VRHFIN =Si: s2p2                                                             
   LEXCH  = PE                                                                  
   EATOM  =   103.0669 eV,    7.5752 Ry                                         
                                                                                
   TITEL  = PAW_PBE Si 05Jan2001                                                
   LULTRA =        F    use ultrasoft PP ?                                      
   IUNSCR =        1    unscreen: 0-lin 1-nonlin 2-no                           
   RPACOR =    1.500    partial core radius                                     
   POMASS =   28.085; ZVAL   =    4.000    mass and valenz                      
   RCORE  =    1.900    outmost cutoff radius                                   
   RWIGS  =    2.480; RWIGS  =    1.312    wigner-seitz radius (au A)           
   ENMAX  =  245.345; ENMIN  =  184.009 eV                                      
   ICORE  =        2    local potential                                         
   LCOR   =        T    correct aug charges                                     
   LPAW   =        T    paw PP                                                  
   EAUG   =  322.069                                                            
   DEXC   =    -.007                                                            
   RMAX   =    2.944    core radius for proj-oper                               
   RAUG   =    1.300    factor for augmentation sphere                          
   RDEP   =    1.993    radius for radial grids                                 
   QCUT   =   -4.246; QGAM   =    8.493    optimization parameters              
                                                                                
   Description                                                                  
     l     E      TYP  RCUT    TYP  RCUT                                        
     0   .000     23  1.900                                                     
     0   .000     23  1.900                                                     
     1   .000     23  1.900                                                     
     1   .000     23  1.900                                                     
     2   .000      7  1.900                                                     
  local pseudopotential read in
  partial core-charges read in
  atomic valenz-charges read in
  non local Contribution for L=            0  read in
    real space projection operators read in
  non local Contribution for L=            0  read in
    real space projection operators read in
  non local Contribution for L=            1  read in
    real space projection operators read in
  non local Contribution for L=            1  read in
    real space projection operators read in
    PAW grid and wavefunctions read in
 
   number of l-projection  operators is LMAX  =            4
   number of lm-projection operators is LMMAX =            8
 
 POTCAR:   PAW_PBE C 08Apr2002                    
   VRHFIN =C: s2p2                                                              
   LEXCH  = PE                                                                  
   EATOM  =   147.1560 eV,   10.8157 Ry                                         
                                                                                
   TITEL  = PAW_PBE C 08Apr2002                                                 
   LULTRA =        F    use ultrasoft PP ?                                      
   IUNSCR =        0    unscreen: 0-lin 1-nonlin 2-no                           
   RPACOR =     .000    partial core radius                                     
   POMASS =   12.011; ZVAL   =    4.000    mass and valenz                      
   RCORE  =    1.500    outmost cutoff radius                                   
   RWIGS  =    1.630; RWIGS  =     .863    wigner-seitz radius (au A)           
   ENMAX  =  400.000; ENMIN  =  300.000 eV                                      
   ICORE  =        2    local potential                                         
   LCOR   =        T    correct aug charges                                     
   LPAW   =        T    paw PP                                                  
   EAUG   =  644.873                                                            
   DEXC   =     .000                                                            
   RMAX   =    2.266    core radius for proj-oper                               
   RAUG   =    1.300    factor for augmentation sphere                          
   RDEP   =    1.501    radius for radial grids                                 
   RDEPT  =    1.300    core radius for aug-charge                              
   QCUT   =   -5.516; QGAM   =   11.032    optimization parameters              
                                                                                
   Description                                                                  
     l     E      TYP  RCUT    TYP  RCUT                                        
     0   .000     23  1.200                                                     
     0   .000     23  1.200                                                     
     1   .000     23  1.500                                                     
     1  2.500     23  1.500                                                     
     2   .000      7  1.500                                                     
  local pseudopotential read in
  atomic valenz-charges read in
  non local Contribution for L=            0  read in
    real space projection operators read in
  non local Contribution for L=            0  read in
    real space projection operators read in
  non local Contribution for L=            1  read in
    real space projection operators read in
  non local Contribution for L=            1  read in
    real space projection operators read in
    PAW grid and wavefunctions read in
 
   number of l-projection  operators is LMAX  =            4
   number of lm-projection operators is LMMAX =            8
 
 Optimization of the real space projectors (new method)

 maximal supplied QI-value         = 19.84
 optimisation between [QCUT,QGAM] = [ 10.12, 20.44] = [ 28.68,116.96] Ry 
 Optimized for a Real-space Cutoff    1.38 Angstroem

   l    n(q)    QCUT    max X(q) W(low)/X(q) W(high)/X(q)  e(spline) 
   0      8    10.119     8.708    0.16E-04    0.67E-05    0.60E-08
   0      8    10.119   106.241    0.56E-04    0.11E-03    0.54E-07
   1      8    10.119     5.901    0.16E-04    0.16E-05    0.22E-07
   1      8    10.119    73.241    0.22E-03    0.17E-03    0.18E-06
 Optimization of the real space projectors (new method)

 maximal supplied QI-value         = 25.13
 optimisation between [QCUT,QGAM] = [ 10.05, 20.36] = [ 28.30,116.06] Ry 
 Optimized for a Real-space Cutoff    1.38 Angstroem

   l    n(q)    QCUT    max X(q) W(low)/X(q) W(high)/X(q)  e(spline) 
   0      8    10.053     5.582    0.33E-04    0.15E-04    0.75E-07
   0      8    10.053    69.432    0.23E-03    0.38E-03    0.25E-06
   1      8    10.053     2.780    0.76E-04    0.11E-03    0.15E-06
   1      8    10.053     4.549    0.19E-03    0.19E-03    0.27E-06
 PAW_PBE Si 05Jan2001                   :
 energy of atom  1       EATOM= -103.0669
 kinetic energy error for atom=    0.0012 (will be added to EATOM!!)
 PAW_PBE C 08Apr2002                    :
 energy of atom  2       EATOM= -147.1560
 kinetic energy error for atom=    0.0288 (will be added to EATOM!!)
 
 
 POSCAR: generated by phonopy                    
  positions in direct lattice
  velocities in cartesian coordinates
 exchange correlation table for  LEXCH =        8
   RHO(1)=    0.500       N(1)  =     2000
   RHO(2)=  100.500       N(2)  =     4000
 


--------------------------------------------------------------------------------------------------------


 ion  position               nearest neighbor table
   1  0.000  0.000  0.000-  26 1.98 189 1.98 136 1.98  75 1.98  82 1.98 117 1.98
   2  0.205  0.205  0.039- 189 1.54 139 1.54  91 1.54  40 1.56
   3  0.207  0.207  0.373-  41 1.53  92 1.54 140 1.54 190 1.55
   4  0.209  0.209  0.707-  42 1.53 191 1.54 141 1.54  93 1.54
   5  0.209  0.541  0.042-  94 1.53 192 1.54 142 1.54  43 1.54
   6  0.208  0.541  0.375-  95 1.53  44 1.53 143 1.54 193 1.54
   7  0.209  0.542  0.708-  45 1.54  96 1.54 144 1.54 194 1.54
   8  0.211  0.871  0.042- 136 1.51 195 1.52  97 1.53  37 1.55
   9  0.208  0.874  0.375- 196 1.53  38 1.54  98 1.54 137 1.54
  10  0.211  0.875  0.706- 138 1.53  39 1.53 197 1.53  99 1.54
  11  0.541  0.209  0.042- 148 1.53 198 1.54 100 1.54  49 1.54
  12  0.541  0.208  0.375- 149 1.53  50 1.53 101 1.54 199 1.54
  13  0.542  0.209  0.708-  51 1.54 150 1.54 102 1.54 200 1.54
  14  0.542  0.542  0.042- 103 1.53 151 1.53 201 1.54  52 1.54
  15  0.541  0.541  0.375- 104 1.54 152 1.54  53 1.54 202 1.54
  16  0.542  0.542  0.708- 153 1.53 105 1.53  54 1.54 203 1.54
  17  0.542  0.875  0.042- 145 1.53 204 1.54 106 1.54  46 1.54
  18  0.541  0.875  0.376-  47 1.53 146 1.53 205 1.54 107 1.54
  19  0.543  0.875  0.709- 147 1.53  48 1.53 108 1.54 206 1.54
  20  0.871  0.211  0.042-  82 1.51 207 1.52 157 1.53  31 1.55
  21  0.874  0.208  0.375- 208 1.53  32 1.54 158 1.54  83 1.54
  22  0.875  0.211  0.706-  84 1.53  33 1.53 209 1.53 159 1.54
  23  0.875  0.542  0.042-  85 1.53 210 1.54 160 1.54  34 1.54
  24  0.875  0.541  0.376-  35 1.53  86 1.53 211 1.54 161 1.54
  25  0.875  0.543  0.709-  87 1.53  36 1.53 162 1.54 212 1.54
  26  0.874  0.874  0.052-  88 1.51 154 1.51 213 1.54   1 1.98
  27  0.875  0.875  0.376-  29 1.53 214 1.54 155 1.54  89 1.54
  28  0.877  0.877  0.711-  30 1.53  90 1.54 156 1.54 215 1.55
  29  0.958  0.958  0.292- 163 1.53  27 1.53 115 1.55  73 1.55
  30  0.959  0.959  0.625- 164 1.53  28 1.53 116 1.54  74 1.54
  31  0.958  0.292  0.958- 165 1.53  78 1.53  20 1.55 111 1.55
  32  0.957  0.291  0.291-  21 1.54  76 1.54 166 1.54 109 1.56
  33  0.958  0.293  0.624-  22 1.53  77 1.53 167 1.54 110 1.54
  34  0.959  0.625  0.959- 168 1.53  81 1.53  23 1.54 114 1.54
  35  0.958  0.624  0.293-  79 1.53  24 1.53 169 1.54 112 1.54
  36  0.959  0.626  0.626-  25 1.53  80 1.53 170 1.54 113 1.54
  37  0.292  0.958  0.958- 171 1.53 126 1.53   8 1.55  57 1.55
  38  0.291  0.957  0.291-   9 1.54 124 1.54 172 1.54  55 1.56
  39  0.293  0.958  0.624-  10 1.53 125 1.53 173 1.54  56 1.54
  40  0.291  0.291  0.957-  60 1.54 120 1.54 174 1.54   2 1.56
  41  0.291  0.291  0.291-   3 1.53  58 1.53 118 1.53 175 1.54
  42  0.292  0.292  0.624-   4 1.53  59 1.53 119 1.53 176 1.54
  43  0.293  0.624  0.958-  63 1.53 123 1.53 177 1.54   5 1.54
  44  0.292  0.624  0.292-  61 1.53   6 1.53 121 1.53 178 1.54
  45  0.292  0.625  0.625-   7 1.54  62 1.54 122 1.54 179 1.54
  46  0.625  0.959  0.959- 180 1.53 135 1.53  17 1.54  66 1.54
  47  0.624  0.958  0.293- 133 1.53  18 1.53 181 1.54  64 1.54
  48  0.626  0.959  0.626-  19 1.53 134 1.53 182 1.54  65 1.54
  49  0.624  0.293  0.958- 129 1.53  69 1.53 183 1.54  11 1.54
  50  0.624  0.292  0.292- 127 1.53  12 1.53  67 1.53 184 1.54
  51  0.625  0.292  0.625-  13 1.54 128 1.54  68 1.54 185 1.54
  52  0.626  0.626  0.959-  72 1.53 132 1.53 186 1.54  14 1.54
  53  0.625  0.625  0.292-  70 1.54 130 1.54  15 1.54 187 1.54
  54  0.626  0.626  0.626-  16 1.54 131 1.54  71 1.54 188 1.54
  55  0.205  0.039  0.205- 136 1.54  91 1.54 190 1.54  38 1.56
  56  0.209  0.042  0.541-  92 1.53 137 1.54 191 1.54  39 1.54
  57  0.211  0.042  0.871- 189 1.51 138 1.52  93 1.53  37 1.55
  58  0.207  0.373  0.207-  41 1.53  94 1.54 193 1.54 139 1.55
  59  0.208  0.375  0.541-  95 1.53  42 1.53 194 1.54 140 1.54
  60  0.208  0.375  0.874- 141 1.53  40 1.54  96 1.54 192 1.54
  61  0.209  0.707  0.209-  44 1.53 142 1.54  97 1.54 196 1.54
  62  0.209  0.708  0.542-  45 1.54  98 1.54 197 1.54 143 1.54
  63  0.211  0.706  0.875- 195 1.53  43 1.53 144 1.53  99 1.54
  64  0.541  0.042  0.209- 199 1.53 145 1.54 100 1.54  47 1.54
  65  0.542  0.042  0.542- 101 1.53 200 1.53 146 1.54  48 1.54
  66  0.542  0.042  0.875- 198 1.53 147 1.54 102 1.54  46 1.54
  67  0.541  0.375  0.208- 202 1.53  50 1.53 103 1.54 148 1.54
  68  0.541  0.375  0.541- 104 1.54 203 1.54  51 1.54 149 1.54
  69  0.541  0.376  0.875-  49 1.53 201 1.53 150 1.54 105 1.54
  70  0.542  0.708  0.209-  53 1.54 205 1.54 106 1.54 151 1.54
  71  0.542  0.708  0.542- 107 1.53 206 1.53  54 1.54 152 1.54
  72  0.543  0.709  0.875- 204 1.53  52 1.53 108 1.54 153 1.54
  73  0.871  0.042  0.211-  82 1.51 154 1.52 208 1.53  29 1.55
  74  0.875  0.042  0.542-  83 1.53 155 1.54 209 1.54  30 1.54
  75  0.874  0.052  0.874-  84 1.51 207 1.51 156 1.54   1 1.98
  76  0.874  0.375  0.208- 157 1.53  32 1.54 211 1.54  85 1.54
  77  0.875  0.376  0.541-  33 1.53  86 1.53 158 1.54 212 1.54
  78  0.875  0.376  0.875-  31 1.53 159 1.54  87 1.54 210 1.54
  79  0.875  0.706  0.211-  88 1.53  35 1.53 160 1.53 214 1.54
  80  0.875  0.709  0.543-  89 1.53  36 1.53 215 1.54 161 1.54
  81  0.877  0.711  0.877-  34 1.53  90 1.54 213 1.54 162 1.55
  82  0.948  0.126  0.126-  73 1.51  20 1.51 109 1.54   1 1.98
  83  0.958  0.125  0.458-  74 1.53 110 1.54  21 1.54 163 1.54
  84  0.958  0.129  0.789-  75 1.51 111 1.52  22 1.53 164 1.55
  85  0.958  0.458  0.125-  23 1.53 112 1.54  76 1.54 165 1.54
  86  0.958  0.458  0.458-  24 1.53  77 1.53 113 1.54 166 1.54
  87  0.958  0.459  0.791-  25 1.53 114 1.54  78 1.54 167 1.54
  88  0.958  0.789  0.129-  26 1.51 115 1.52  79 1.53 168 1.55
  89  0.958  0.791  0.459-  80 1.53 116 1.54  27 1.54 169 1.54
  90  0.961  0.795  0.795- 117 1.54  81 1.54  28 1.54 170 1.56
  91  0.289  0.123  0.123- 171 1.53  55 1.54   2 1.54 118 1.55
  92  0.291  0.125  0.457-  56 1.53 172 1.53   3 1.54 119 1.54
  93  0.294  0.125  0.789-  57 1.53 173 1.53 120 1.53   4 1.54
  94  0.291  0.457  0.125-   5 1.53 174 1.53  58 1.54 121 1.54
  95  0.292  0.458  0.458-   6 1.53  59 1.53 175 1.54 122 1.54
  96  0.292  0.458  0.791- 176 1.54   7 1.54  60 1.54 123 1.54
  97  0.294  0.789  0.125-   8 1.53 177 1.53 124 1.53  61 1.54
  98  0.292  0.791  0.458- 178 1.54  62 1.54   9 1.54 125 1.54
  99  0.293  0.791  0.791- 179 1.53 126 1.54  63 1.54  10 1.54
 100  0.624  0.125  0.125- 180 1.53 127 1.54  11 1.54  64 1.54
 101  0.624  0.125  0.459- 181 1.53  65 1.53 128 1.54  12 1.54
 102  0.625  0.126  0.792- 129 1.53 182 1.54  13 1.54  66 1.54
 103  0.624  0.459  0.125- 183 1.53  14 1.53 130 1.54  67 1.54
 104  0.625  0.459  0.459-  68 1.54  15 1.54 184 1.54 131 1.54
 105  0.625  0.459  0.792-  16 1.53 185 1.53  69 1.54 132 1.54
 106  0.625  0.792  0.126- 133 1.53 186 1.54  70 1.54  17 1.54
 107  0.625  0.792  0.459-  71 1.53 187 1.53  18 1.54 134 1.54
 108  0.627  0.793  0.793- 188 1.53  72 1.54  19 1.54 135 1.55
 109  0.039  0.205  0.205-  82 1.54 139 1.54 190 1.54  32 1.56
 110  0.042  0.209  0.541- 140 1.53  83 1.54 191 1.54  33 1.54
 111  0.042  0.211  0.871- 189 1.51  84 1.52 141 1.53  31 1.55
 112  0.042  0.541  0.209- 193 1.53  85 1.54 142 1.54  35 1.54
 113  0.042  0.542  0.542- 143 1.53 194 1.53  86 1.54  36 1.54
 114  0.042  0.542  0.875- 192 1.53  87 1.54 144 1.54  34 1.54
 115  0.042  0.871  0.211- 136 1.51  88 1.52 196 1.53  29 1.55
 116  0.042  0.875  0.542- 137 1.53  89 1.54 197 1.54  30 1.54
 117  0.052  0.874  0.874- 138 1.51 195 1.51  90 1.54   1 1.98
 118  0.373  0.207  0.207-  41 1.53 148 1.54 199 1.54  91 1.55
 119  0.375  0.208  0.541- 149 1.53  42 1.53 200 1.54  92 1.54
 120  0.375  0.208  0.874-  93 1.53  40 1.54 150 1.54 198 1.54
 121  0.375  0.541  0.208- 202 1.53  44 1.53 151 1.54  94 1.54
 122  0.375  0.541  0.541- 152 1.54 203 1.54  45 1.54  95 1.54
 123  0.376  0.541  0.875-  43 1.53 201 1.53  96 1.54 153 1.54
 124  0.375  0.874  0.208-  97 1.53  38 1.54 205 1.54 145 1.54
 125  0.376  0.875  0.541-  39 1.53 146 1.53  98 1.54 206 1.54
 126  0.376  0.875  0.875-  37 1.53  99 1.54 147 1.54 204 1.54
 127  0.707  0.209  0.209-  50 1.53 100 1.54 157 1.54 208 1.54
 128  0.708  0.209  0.542-  51 1.54 158 1.54 209 1.54 101 1.54
 129  0.706  0.211  0.875- 207 1.53  49 1.53 102 1.53 159 1.54
 130  0.708  0.542  0.209-  53 1.54 211 1.54 160 1.54 103 1.54
 131  0.708  0.542  0.542- 161 1.53 212 1.53  54 1.54 104 1.54
 132  0.709  0.543  0.875- 210 1.53  52 1.53 162 1.54 105 1.54
 133  0.706  0.875  0.211- 154 1.53  47 1.53 106 1.53 214 1.54
 134  0.709  0.875  0.543- 155 1.53  48 1.53 215 1.54 107 1.54
 135  0.711  0.877  0.877-  46 1.53 156 1.54 213 1.54 108 1.55
 136  0.126  0.948  0.126- 115 1.51   8 1.51  55 1.54   1 1.98
 137  0.125  0.958  0.458- 116 1.53  56 1.54   9 1.54 163 1.54
 138  0.129  0.958  0.789- 117 1.51  57 1.52  10 1.53 164 1.55
 139  0.123  0.289  0.123- 165 1.53 109 1.54   2 1.54  58 1.55
 140  0.125  0.291  0.457- 110 1.53 166 1.53   3 1.54  59 1.54
 141  0.125  0.294  0.789- 111 1.53 167 1.53  60 1.53   4 1.54
 142  0.125  0.624  0.125- 168 1.53  61 1.54 112 1.54   5 1.54
 143  0.125  0.624  0.459- 169 1.53 113 1.53  62 1.54   6 1.54
 144  0.126  0.625  0.792-  63 1.53 170 1.54   7 1.54 114 1.54
 145  0.458  0.958  0.125-  17 1.53  64 1.54 124 1.54 171 1.54
 146  0.458  0.958  0.458-  18 1.53 125 1.53  65 1.54 172 1.54
 147  0.459  0.958  0.791-  19 1.53  66 1.54 126 1.54 173 1.54
 148  0.457  0.291  0.125-  11 1.53 174 1.53 118 1.54  67 1.54
 149  0.458  0.292  0.458-  12 1.53 119 1.53 175 1.54  68 1.54
 150  0.458  0.292  0.791- 176 1.54  13 1.54 120 1.54  69 1.54
 151  0.459  0.624  0.125- 177 1.53  14 1.53  70 1.54 121 1.54
 152  0.459  0.625  0.459-  15 1.54 122 1.54 178 1.54  71 1.54
 153  0.459  0.625  0.792-  16 1.53 179 1.53 123 1.54  72 1.54
 154  0.789  0.958  0.129-  26 1.51  73 1.52 133 1.53 180 1.55
 155  0.791  0.958  0.459- 134 1.53  74 1.54  27 1.54 181 1.54
 156  0.795  0.961  0.795-  75 1.54 135 1.54  28 1.54 182 1.56
 157  0.789  0.294  0.125-  20 1.53 183 1.53  76 1.53 127 1.54
 158  0.791  0.292  0.458- 184 1.54 128 1.54  21 1.54  77 1.54
 159  0.791  0.293  0.791- 185 1.53  78 1.54 129 1.54  22 1.54
 160  0.792  0.625  0.126-  79 1.53 186 1.54 130 1.54  23 1.54
 161  0.792  0.625  0.459- 131 1.53 187 1.53  24 1.54  80 1.54
 162  0.793  0.627  0.793- 188 1.53 132 1.54  25 1.54  81 1.55
 163  0.041  0.041  0.375-  29 1.53 190 1.53  83 1.54 137 1.54
 164  0.042  0.042  0.708-  30 1.53 191 1.53 138 1.55  84 1.55
 165  0.041  0.375  0.041-  31 1.53 139 1.53 192 1.54  85 1.54
 166  0.041  0.374  0.374- 193 1.53 140 1.53  32 1.54  86 1.54
 167  0.042  0.376  0.707- 141 1.53 194 1.53  33 1.54  87 1.54
 168  0.042  0.708  0.042-  34 1.53 142 1.53 195 1.55  88 1.55
 169  0.042  0.707  0.376- 196 1.53 143 1.53  35 1.54  89 1.54
 170  0.043  0.709  0.709- 197 1.54 144 1.54  36 1.54  90 1.56
 171  0.375  0.041  0.041-  37 1.53  91 1.53 145 1.54 198 1.54
 172  0.374  0.041  0.374- 199 1.53  92 1.53  38 1.54 146 1.54
 173  0.376  0.042  0.707-  93 1.53 200 1.53  39 1.54 147 1.54
 174  0.374  0.374  0.041-  94 1.53 148 1.53  40 1.54 201 1.54
 175  0.374  0.374  0.374- 202 1.54 149 1.54  95 1.54  41 1.54
 176  0.375  0.375  0.708-  96 1.54 150 1.54 203 1.54  42 1.54
 177  0.376  0.707  0.042-  97 1.53 151 1.53  43 1.54 204 1.54
 178  0.375  0.708  0.375- 205 1.54  98 1.54 152 1.54  44 1.54
 179  0.376  0.708  0.708-  99 1.53 206 1.53 153 1.53  45 1.54
 180  0.708  0.042  0.042-  46 1.53 100 1.53 154 1.55 207 1.55
 181  0.707  0.042  0.376- 208 1.53 101 1.53  47 1.54 155 1.54
 182  0.709  0.043  0.709- 209 1.54 102 1.54  48 1.54 156 1.56
 183  0.707  0.376  0.042- 157 1.53 103 1.53  49 1.54 210 1.54
 184  0.708  0.375  0.375- 211 1.54 158 1.54 104 1.54  50 1.54
 185  0.708  0.376  0.708- 159 1.53 212 1.53 105 1.53  51 1.54
 186  0.709  0.709  0.043- 106 1.54 160 1.54  52 1.54 213 1.56
 187  0.708  0.708  0.376- 214 1.53 161 1.53 107 1.53  53 1.54
 188  0.709  0.709  0.709- 215 1.53 162 1.53 108 1.53  54 1.54
 189  0.126  0.126  0.948-  57 1.51 111 1.51   2 1.54   1 1.98
 190  0.123  0.123  0.289- 163 1.53 109 1.54  55 1.54   3 1.55
 191  0.125  0.125  0.624- 164 1.53   4 1.54 110 1.54  56 1.54
 192  0.125  0.458  0.958- 114 1.53   5 1.54  60 1.54 165 1.54
 193  0.125  0.457  0.291- 112 1.53 166 1.53  58 1.54   6 1.54
 194  0.125  0.459  0.624- 167 1.53 113 1.53   7 1.54  59 1.54
 195  0.129  0.789  0.958- 117 1.51   8 1.52  63 1.53 168 1.55
 196  0.125  0.789  0.294- 115 1.53 169 1.53   9 1.53  61 1.54
 197  0.126  0.792  0.625-  10 1.53 170 1.54  62 1.54 116 1.54
 198  0.458  0.125  0.958-  66 1.53  11 1.54 120 1.54 171 1.54
 199  0.457  0.125  0.291-  64 1.53 172 1.53 118 1.54  12 1.54
 200  0.459  0.125  0.624- 173 1.53  65 1.53  13 1.54 119 1.54
 201  0.458  0.458  0.958-  69 1.53 123 1.53  14 1.54 174 1.54
 202  0.458  0.458  0.292-  67 1.53 121 1.53 175 1.54  15 1.54
 203  0.459  0.459  0.625-  68 1.54 122 1.54 176 1.54  16 1.54
 204  0.459  0.791  0.958-  72 1.53  17 1.54 126 1.54 177 1.54
 205  0.458  0.791  0.292- 178 1.54  70 1.54 124 1.54  18 1.54
 206  0.459  0.792  0.625-  71 1.53 179 1.53 125 1.54  19 1.54
 207  0.789  0.129  0.958-  75 1.51  20 1.52 129 1.53 180 1.55
 208  0.789  0.125  0.294-  73 1.53 181 1.53  21 1.53 127 1.54
 209  0.792  0.126  0.625-  22 1.53 182 1.54 128 1.54  74 1.54
 210  0.791  0.459  0.958- 132 1.53  23 1.54  78 1.54 183 1.54
 211  0.791  0.458  0.292- 184 1.54 130 1.54  76 1.54  24 1.54
 212  0.792  0.459  0.625- 131 1.53 185 1.53  77 1.54  25 1.54
 213  0.795  0.795  0.961-  26 1.54  81 1.54 135 1.54 186 1.56
 214  0.791  0.791  0.293- 187 1.53  27 1.54 133 1.54  79 1.54
 215  0.793  0.793  0.627- 188 1.53 134 1.54  80 1.54  28 1.55
 

IMPORTANT INFORMATION: All symmetrisations will be switched off!
NOSYMM: (Re-)initialisation of all symmetry stuff for point group C_1.

 
 
 KPOINTS: pymatgen v1.1 with grid density = 2210 /

Automatic generation of k-mesh.
Space group operators:
 irot       det(A)        alpha          n_x          n_y          n_z        tau_x        tau_y        tau_z
    1     1.000000     0.000000     1.000000     0.000000     0.000000     0.000000     0.000000     0.000000
 
 Subroutine IBZKPT returns following result:
 ===========================================
 
 Found      1 irreducible k-points:
 
 Following reciprocal coordinates:
            Coordinates               Weight
  0.000000  0.000000  0.000000      1.000000
 
 Following cartesian coordinates:
            Coordinates               Weight
  0.000000  0.000000  0.000000      1.000000
 
 
 Subroutine IBZKPT_HF returns following result:
 ==============================================
 
 Found      1 k-points in 1st BZ
 the following      1 k-points will be used (e.g. in the exchange kernel)
 Following reciprocal coordinates:   # in IRBZ
  0.000000  0.000000  0.000000    1.00000000   1 t-inv F


--------------------------------------------------------------------------------------------------------




 Dimension of arrays:
   k-points           NKPTS =      1   k-points in BZ     NKDIM =      1   number of bands    NBANDS=    608
   number of dos      NEDOS =    301   number of ions     NIONS =    215
   non local maximal  LDIM  =      4   non local SUM 2l+1 LMDIM =      8
   total plane-waves  NPLWV = 343000
   max r-space proj   IRMAX =   3182   max aug-charges    IRDMAX=   9703
   dimension x,y,z NGX =    70 NGY =   70 NGZ =   70
   dimension x,y,z NGXF=   140 NGYF=  140 NGZF=  140
   support grid    NGXF=   140 NGYF=  140 NGZF=  140
   ions per type =               1 214
   NGX,Y,Z   is equivalent  to a cutoff of  10.93, 10.93, 10.93 a.u.
   NGXF,Y,Z  is equivalent  to a cutoff of  21.86, 21.86, 21.86 a.u.

 SYSTEM =  unknown system                          
 POSCAR =  generated by phonopy                    

 Startparameter for this run:
   NWRITE =      2    write-flag & timer
   PREC   = accura    normal or accurate (medium, high low for compatibility)
   ISTART =      1    job   : 0-new  1-cont  2-samecut
   ICHARG =      2    charge: 1-file 2-atom 10-const
   ISPIN  =      2    spin polarized calculation?
   LNONCOLLINEAR =      F non collinear calculations
   LSORBIT =      F    spin-orbit coupling
   INIWAV =      1    electr: 0-lowe 1-rand  2-diag
   LASPH  =      F    aspherical Exc in radial PAW
   METAGGA=      F    non-selfconsistent MetaGGA calc.

 Electronic Relaxation 1
   ENCUT  =  400.0 eV  29.40 Ry    5.42 a.u.  17.36 17.36 17.36*2*pi/ulx,y,z
   ENINI  =  400.0     initial cutoff
   ENAUG  =  644.9 eV  augmentation charge cutoff
   NELM   =    100;   NELMIN=  2; NELMDL=  0     # of ELM steps 
   EDIFF  = 0.1E-03   stopping-criterion for ELM
   LREAL  =      T    real-space projection
   NLSPLINE    = F    spline interpolate recip. space projectors
   LCOMPAT=      F    compatible to vasp.4.4
   GGA_COMPAT  = T    GGA compatible to vasp.4.4-vasp.4.6
   LMAXPAW     = -100 max onsite density
   LMAXMIX     =    2 max onsite mixed and CHGCAR
   VOSKOWN=      0    Vosko Wilk Nusair interpolation
   ROPT   =   -0.00025  -0.00025
 Ionic relaxation
   EDIFFG = -.1E-01   stopping-criterion for IOM
   NSW    =     99    number of steps for IOM
   NBLOCK =      1;   KBLOCK =     99    inner block; outer block 
   IBRION =      2    ionic relax: 0-MD 1-quasi-New 2-CG
   NFREE  =      1    steps in history (QN), initial steepest desc. (CG)
   ISIF   =      2    stress and relaxation
   IWAVPR =     11    prediction:  0-non 1-charg 2-wave 3-comb
   ISYM   =      0    0-nonsym 1-usesym 2-fastsym
   LCORR  =      T    Harris-Foulkes like correction to forces

   POTIM  = 0.5000    time-step for ionic-motion
   TEIN   =    0.0    initial temperature
   TEBEG  =    0.0;   TEEND  =   0.0 temperature during run
   SMASS  =  -3.00    Nose mass-parameter (am)
   estimated Nose-frequenzy (Omega)   =  0.10E-29 period in steps =****** mass=  -0.259E-26a.u.
   SCALEE = 1.0000    scale energy and forces
   NPACO  =    256;   APACO  = 16.0  distance and # of slots for P.C.
   PSTRESS=    0.0 pullay stress

  Mass of Ions in am
   POMASS =  28.09 12.01
  Ionic Valenz
   ZVAL   =   4.00  4.00
  Atomic Wigner-Seitz radii
   RWIGS  =  -1.00 -1.00
  virtual crystal weights 
   VCA    =   1.00  1.00
   NELECT =     860.0000    total number of electrons
   NUPDOWN=       2.0000    fix difference up-down

 DOS related values:
   EMIN   =  10.00;   EMAX   =-10.00  energy-range for DOS
   EFERMI =   0.00
   ISMEAR =    -2;   SIGMA  =   0.05  broadening in eV -4-tet -1-fermi 0-gaus

 Electronic relaxation 2 (details)
   IALGO  =     58    algorithm
   LDIAG  =      F    sub-space diagonalisation (order eigenvalues)
   LSUBROT=      F    optimize rotation matrix (better conditioning)
   TURBO    =      0    0=normal 1=particle mesh
   IRESTART =      0    0=no restart 2=restart with 2 vectors
   NREBOOT  =      0    no. of reboots
   NMIN     =      0    reboot dimension
   EREF     =   0.00    reference energy to select bands
   IMIX   =      4    mixing-type and parameters
     AMIX     =   0.40;   BMIX     =  1.00
     AMIX_MAG =   1.60;   BMIX_MAG =  1.00
     AMIN     =   0.10
     WC   =   100.;   INIMIX=   1;  MIXPRE=   1;  MAXMIX= -45

 Intra band minimization:
   WEIMIN = 0.0010     energy-eigenvalue tresh-hold
   EBREAK =  0.41E-07  absolut break condition
   DEPER  =   0.30     relativ break condition  

   TIME   =   0.40     timestep for ELM

  volume/ion in A,a.u.               =       5.61        37.87
  Fermi-wavevector in a.u.,A,eV,Ry     =   1.462352  2.763445 29.095711  2.138474
  Thomas-Fermi vector in A             =   2.578576
 
 Write flags
   LWAVE        =      T    write WAVECAR
   LDOWNSAMPLE  =      F    k-point downsampling of WAVECAR
   LCHARG       =      F    write CHGCAR
   LVTOT        =      F    write LOCPOT, total local potential
   LVHAR        =      F    write LOCPOT, Hartree potential only
   LELF         =      F    write electronic localiz. function (ELF)
   LORBIT       =     11    0 simple, 1 ext, 2 COOP (PROOUT), +10 PAW based schemes


 Dipole corrections
   LMONO  =      F    monopole corrections only (constant potential shift)
   LDIPOL =      F    correct potential (dipole corrections)
   IDIPOL =      0    1-x, 2-y, 3-z, 4-all directions 
   EPSILON=  1.0000000 bulk dielectric constant

 Exchange correlation treatment:
   GGA     =    --    GGA type
   LEXCH   =     8    internal setting for exchange type
   VOSKOWN=      0    Vosko Wilk Nusair interpolation
   EXXOEP  =     0    0=HF, 1=EXX-LHF (local Hartree Fock) 2=EXX OEP
   LHFCALC =     T    Hartree Fock is set to
   LSYMGRAD=     F    symmetrize gradient (conserves proper symmetry)
   PRECFOCK=fast      Normal, Fast or Accurate (Low or Medium for compatibility)
   LRHFCALC=     F    long range Hartree Fock
   LRSCOR  =     F    long range correlation only (use DFT for short range part)
   LTHOMAS =     F    Thomas Fermi screening in HF
   LMODELHF=     F    short range full HF, long range fraction AEXX
   ENCUT4O =  -1.0   cutoff for four orbital integrals eV
   LMAXFOCK=     4    L truncation for augmentation on plane wave grid
   LMAXFOCKAE=  -1    L truncation for all-electron charge restoration on plane wave grid
   NMAXFOCKAE=   1    number of basis functions for all-electron charge restoration
   LFOCKAEDFT=     F  apply the AE augmentation even for DFT
   NKREDX  =     1    reduce k-point grid by
   NKREDY  =     1    reduce k-point grid by
   NKREDZ  =     1    reduce k-point grid by
   SHIFTRED=     F    shift reduced grid of Gamma
   HFKIDENT=     F    idential grid for each k-point
   ODDONLY =     F    use only odd q-grid points
   EVENONLY=     F    use only even q-grid points
   HFALPHA =   -1.0000 decay constant for conv. correction
   MCALPHA =    0.0000 extent of test-charge in conv. correction in multipole expansion
   AEXX    =    0.2500 exact exchange contribution
   HFSCREEN=    0.2000 screening length (either q_TF or 0.3 A-1)
   HFSCREENC=   0.2000 screening length for correlation (either q_TF or 0.3 A-1)
   HFRCUT  =    0.0000 spherical cutoff for potential kernel
   ALDAX   =    0.7500 LDA exchange part
   AGGAX   =    0.7500 GGA exchange part
   ALDAC   =    1.0000 LDA correlation
   AGGAC   =    1.0000 GGA correlation
   ENCUTFOCK=  -1.0 apply spherical cutoff to Coloumb kernel
   NBANDSGWLOW=     1    first orbital included in HF term
   NBLOCK_FOCK=    64    blocking factor in FOCK_ACC
 Linear response parameters
   LEPSILON=     F    determine dielectric tensor
   LRPA    =     F    only Hartree local field effects (RPA)
   LNABLA  =     F    use nabla operator in PAW spheres
   LVEL    =     F    velocity operator in full k-point grid
   LINTERFAST=   F  fast interpolation
   KINTER  =     0    interpolate to denser k-point grid
   CSHIFT  =0.1000    complex shift for real part using Kramers Kronig
   OMEGAMAX=  -1.0    maximum frequency
   DEG_THRESHOLD= 0.2000000E-02 threshold for treating states as degnerate
   RTIME   =   -0.100 relaxation time in fs
  (WPLASMAI=    0.000 imaginary part of plasma frequency in eV, 0.658/RTIME)
   DFIELD  = 0.0000000 0.0000000 0.0000000 field for delta impulse in time
 
 Orbital magnetization related:
   ORBITALMAG=     F  switch on orbital magnetization
   LCHIMAG   =     F  perturbation theory with respect to B field
   DQ        =  0.001000  dq finite difference perturbation B field
   LLRAUG    =     F  two centre corrections for induced B field



--------------------------------------------------------------------------------------------------------


 conjugate gradient relaxation of ions
 charge density and potential will be updated during run
 spin polarized calculation
 Conjugate gradient for all bands (Kresse, et al. variant)
 preconditioned conjugated gradient                                        
 perform Loewdin sub-space diagonalisation
    ordering is kept fixed
    before iterative eigenvector-optimisation
 modified Broyden-mixing scheme, WC =      100.0
 initial mixing is a Kerker type mixing with AMIX =  0.4000 and BMIX =      1.0000
 Hartree-type preconditioning will be used
 using additional bands           178
 real space projection scheme for non local part
 use partial core corrections
 no Harris-corrections to forces 
 use gradient corrections 
 use of overlap-Matrix (Vanderbilt PP)
 partial occupancies read from INCAR or WAVECAR (fixed during run)


--------------------------------------------------------------------------------------------------------


  energy-cutoff  :      400.00
  volume of cell :     1206.61
      direct lattice vectors                 reciprocal lattice vectors
     7.527901926  4.346236203  6.146506184     0.066419569  0.038347356  0.054231351
    -7.527901926  4.346236203  6.146506184    -0.066419569  0.038347356  0.054231351
    -0.000000000 -8.692472407  6.146506184     0.000000000 -0.076694712  0.054231351

  length of vectors
    10.646061000 10.646061000 10.646061000     0.093931455  0.093931455  0.093931455


 
 old parameters found on file WAVECAR:
  energy-cutoff  :      400.00
  volume of cell :     1206.61
      direct lattice vectors                 reciprocal lattice vectors
     7.527901926  4.346236203  6.146506184     0.066419569  0.038347356  0.054231351
    -7.527901926  4.346236203  6.146506184    -0.066419569  0.038347356  0.054231351
    -0.000000000 -8.692472407  6.146506184     0.000000000 -0.076694712  0.054231351

  length of vectors

 
 k-points in units of 2pi/SCALE and weight: pymatgen v1.1 with grid density = 2210 /
   0.00000000  0.00000000  0.00000000       1.000
 
 k-points in reciprocal lattice and weights: pymatgen v1.1 with grid density = 2210 /
   0.00000000  0.00000000  0.00000000       1.000
 
 position of ions in fractional coordinates (direct lattice) 
   0.00000000  0.00000000  0.00000000
   0.20523706  0.20523706  0.03907120
   0.20719807  0.20719807  0.37323555
   0.20880015  0.20880015  0.70709406
   0.20851414  0.54088306  0.04153516
   0.20821001  0.54072312  0.37471960
   0.20878162  0.54151212  0.70783595
   0.21092373  0.87111898  0.04180582
   0.20836162  0.87414202  0.37523652
   0.21063151  0.87457206  0.70624268
   0.54088306  0.20851414  0.04153516
   0.54072312  0.20821001  0.37471960
   0.54151212  0.20878162  0.70783595
   0.54172676  0.54172676  0.04185156
   0.54143265  0.54143265  0.37513137
   0.54213628  0.54213628  0.70840308
   0.54187583  0.87504318  0.04197505
   0.54133188  0.87475338  0.37581574
   0.54282232  0.87537489  0.70891527
   0.87111898  0.21092373  0.04180582
   0.87414202  0.20836162  0.37523652
   0.87457206  0.21063151  0.70624268
   0.87504318  0.54187583  0.04197505
   0.87475338  0.54133188  0.37581574
   0.87537489  0.54282232  0.70891527
   0.87382210  0.87382210  0.05213185
   0.87468421  0.87468421  0.37585623
   0.87692300  0.87692300  0.71062135
   0.95768266  0.95768266  0.29230318
   0.95898502  0.95898502  0.62544500
   0.95768266  0.29230318  0.95768266
   0.95715206  0.29094355  0.29094355
   0.95828690  0.29296320  0.62374209
   0.95898502  0.62544500  0.95898502
   0.95828690  0.62374209  0.29296320
   0.95883322  0.62575745  0.62575745
   0.29230318  0.95768266  0.95768266
   0.29094355  0.95715206  0.29094355
   0.29296320  0.95828690  0.62374209
   0.29094355  0.29094355  0.95715206
   0.29060861  0.29060861  0.29060861
   0.29183415  0.29183415  0.62393941
   0.29296320  0.62374209  0.95828690
   0.29183415  0.62393941  0.29183415
   0.29221657  0.62490576  0.62490576
   0.62544500  0.95898502  0.95898502
   0.62374209  0.95828690  0.29296320
   0.62575745  0.95883322  0.62575745
   0.62374209  0.29296320  0.95828690
   0.62393941  0.29183415  0.29183415
   0.62490576  0.29221657  0.62490576
   0.62575745  0.62575745  0.95883322
   0.62490576  0.62490576  0.29221657
   0.62563682  0.62563682  0.62563682
   0.20523706  0.03907120  0.20523706
   0.20851414  0.04153516  0.54088306
   0.21092373  0.04180582  0.87111898
   0.20719807  0.37323555  0.20719807
   0.20821001  0.37471960  0.54072312
   0.20836162  0.37523652  0.87414202
   0.20880015  0.70709406  0.20880015
   0.20878162  0.70783595  0.54151212
   0.21063151  0.70624268  0.87457206
   0.54088306  0.04153516  0.20851414
   0.54172676  0.04185156  0.54172676
   0.54187583  0.04197505  0.87504318
   0.54072312  0.37471960  0.20821001
   0.54143265  0.37513137  0.54143265
   0.54133188  0.37581574  0.87475338
   0.54151212  0.70783595  0.20878162
   0.54213628  0.70840308  0.54213628
   0.54282232  0.70891527  0.87537489
   0.87111898  0.04180582  0.21092373
   0.87504318  0.04197505  0.54187583
   0.87382210  0.05213185  0.87382210
   0.87414202  0.37523652  0.20836162
   0.87475338  0.37581574  0.54133188
   0.87468421  0.37585623  0.87468421
   0.87457206  0.70624268  0.21063151
   0.87537489  0.70891527  0.54282232
   0.87692300  0.71062135  0.87692300
   0.94786815  0.12617790  0.12617790
   0.95802495  0.12495682  0.45812417
   0.95819418  0.12888102  0.78907627
   0.95802495  0.45812417  0.12495682
   0.95814844  0.45827324  0.45827324
   0.95846484  0.45911694  0.79148586
   0.95819418  0.78907627  0.12888102
   0.95846484  0.79148586  0.45911694
   0.96092880  0.79476294  0.79476294
   0.28937865  0.12307700  0.12307700
   0.29108473  0.12462511  0.45717768
   0.29375732  0.12542794  0.78936849
   0.29108473  0.45717768  0.12462511
   0.29159692  0.45786372  0.45786372
   0.29216405  0.45848788  0.79121838
   0.29375732  0.78936849  0.12542794
   0.29216405  0.79121838  0.45848788
   0.29290594  0.79119985  0.79119985
   0.62414377  0.12531579  0.12531579
   0.62418426  0.12524662  0.45866812
   0.62476348  0.12585798  0.79163838
   0.62418426  0.45866812  0.12524662
   0.62486863  0.45856735  0.45856735
   0.62528040  0.45927688  0.79178999
   0.62476348  0.79163838  0.12585798
   0.62528040  0.79178999  0.45927688
   0.62676445  0.79280193  0.79280193
   0.03907120  0.20523706  0.20523706
   0.04153516  0.20851414  0.54088306
   0.04180582  0.21092373  0.87111898
   0.04153516  0.54088306  0.20851414
   0.04185156  0.54172676  0.54172676
   0.04197505  0.54187583  0.87504318
   0.04180582  0.87111898  0.21092373
   0.04197505  0.87504318  0.54187583
   0.05213185  0.87382210  0.87382210
   0.37323555  0.20719807  0.20719807
   0.37471960  0.20821001  0.54072312
   0.37523652  0.20836162  0.87414202
   0.37471960  0.54072312  0.20821001
   0.37513137  0.54143265  0.54143265
   0.37581574  0.54133188  0.87475338
   0.37523652  0.87414202  0.20836162
   0.37581574  0.87475338  0.54133188
   0.37585623  0.87468421  0.87468421
   0.70709406  0.20880015  0.20880015
   0.70783595  0.20878162  0.54151212
   0.70624268  0.21063151  0.87457206
   0.70783595  0.54151212  0.20878162
   0.70840308  0.54213628  0.54213628
   0.70891527  0.54282232  0.87537489
   0.70624268  0.87457206  0.21063151
   0.70891527  0.87537489  0.54282232
   0.71062135  0.87692300  0.87692300
   0.12617790  0.94786815  0.12617790
   0.12495682  0.95802495  0.45812417
   0.12888102  0.95819418  0.78907627
   0.12307700  0.28937865  0.12307700
   0.12462511  0.29108473  0.45717768
   0.12542794  0.29375732  0.78936849
   0.12531579  0.62414377  0.12531579
   0.12524662  0.62418426  0.45866812
   0.12585798  0.62476348  0.79163838
   0.45812417  0.95802495  0.12495682
   0.45827324  0.95814844  0.45827324
   0.45911694  0.95846484  0.79148586
   0.45717768  0.29108473  0.12462511
   0.45786372  0.29159692  0.45786372
   0.45848788  0.29216405  0.79121838
   0.45866812  0.62418426  0.12524662
   0.45856735  0.62486863  0.45856735
   0.45927688  0.62528040  0.79178999
   0.78907627  0.95819418  0.12888102
   0.79148586  0.95846484  0.45911694
   0.79476294  0.96092880  0.79476294
   0.78936849  0.29375732  0.12542794
   0.79121838  0.29216405  0.45848788
   0.79119985  0.29290594  0.79119985
   0.79163838  0.62476348  0.12585798
   0.79178999  0.62528040  0.45927688
   0.79280193  0.62676445  0.79280193
   0.04101498  0.04101498  0.37455500
   0.04231734  0.04231734  0.70769682
   0.04101498  0.37455500  0.04101498
   0.04116678  0.37424255  0.37424255
   0.04171310  0.37625791  0.70703680
   0.04231734  0.70769682  0.04231734
   0.04171310  0.70703680  0.37625791
   0.04284794  0.70905645  0.70905645
   0.37455500  0.04101498  0.04101498
   0.37424255  0.04116678  0.37424255
   0.37625791  0.04171310  0.70703680
   0.37424255  0.37424255  0.04116678
   0.37436318  0.37436318  0.37436318
   0.37509424  0.37509424  0.70778343
   0.37625791  0.70703680  0.04171310
   0.37509424  0.70778343  0.37509424
   0.37606059  0.70816585  0.70816585
   0.70769682  0.04231734  0.04231734
   0.70703680  0.04171310  0.37625791
   0.70905645  0.04284794  0.70905645
   0.70703680  0.37625791  0.04171310
   0.70778343  0.37509424  0.37509424
   0.70816585  0.37606059  0.70816585
   0.70905645  0.70905645  0.04284794
   0.70816585  0.70816585  0.37606059
   0.70939139  0.70939139  0.70939139
   0.12617790  0.12617790  0.94786815
   0.12307700  0.12307700  0.28937865
   0.12531579  0.12531579  0.62414377
   0.12495682  0.45812417  0.95802495
   0.12462511  0.45717768  0.29108473
   0.12524662  0.45866812  0.62418426
   0.12888102  0.78907627  0.95819418
   0.12542794  0.78936849  0.29375732
   0.12585798  0.79163838  0.62476348
   0.45812417  0.12495682  0.95802495
   0.45717768  0.12462511  0.29108473
   0.45866812  0.12524662  0.62418426
   0.45827324  0.45827324  0.95814844
   0.45786372  0.45786372  0.29159692
   0.45856735  0.45856735  0.62486863
   0.45911694  0.79148586  0.95846484
   0.45848788  0.79121838  0.29216405
   0.45927688  0.79178999  0.62528040
   0.78907627  0.12888102  0.95819418
   0.78936849  0.12542794  0.29375732
   0.79163838  0.12585798  0.62476348
   0.79148586  0.45911694  0.95846484
   0.79121838  0.45848788  0.29216405
   0.79178999  0.45927688  0.62528040
   0.79476294  0.79476294  0.96092880
   0.79119985  0.79119985  0.29290594
   0.79280193  0.79280193  0.62676445
 
 position of ions in cartesian coordinates  (Angst):
   0.00000000  0.00000000  0.00000000
   0.00000000  1.44439215  2.76313303
  -0.00000000 -1.44327621  4.84118298
  -0.00000000 -4.33140607  6.91294077
  -2.50204060  2.89601400  4.86147065
  -2.50312609 -0.00219952  6.90653848
  -2.50476261 -2.89189064  8.96240311
  -4.96988509  4.33941725  6.90774189
  -5.01192955  1.44308336  8.96000892
  -4.99807939 -1.42244392 11.01113545
   2.50204060  2.89601400  4.86147065
   2.50312609 -0.00219952  6.90653848
   2.50476261 -2.89189064  8.96240311
   0.00000000  4.34515144  6.91669463
   0.00000000  1.44556927  8.96158555
  -0.00000000 -1.44526957 11.01869193
  -2.50805112  5.79339774  8.96710142
  -2.50996436  2.88787307 11.01393057
  -2.50342306  0.00159361 13.07431003
   4.96988509  4.33941725  6.90774189
   5.01192955  1.44308336  8.96000892
   4.99807939 -1.42244392 11.01113545
   2.50805112  5.79339774  8.96710142
   2.50996436  2.88787307 11.01393057
   2.50342306  0.00159361 13.07431003
   0.00000000  7.14251989 11.06233466
   0.00000000  4.33604845 13.06270648
   0.00000000  1.44557245 15.14786381
   0.00000000  5.78379280 13.56944815
   0.00000000  2.89928745 15.63311623
   5.00891149 -2.89189640 13.56944815
   5.01515238  2.89549957  9.45971368
   5.00849154  0.01636755 11.52465111
   2.51085658 -1.44964372 15.63311623
   2.51842049  4.32929713 11.52465111
   2.50736174  1.44762598 13.58591834
  -5.00891149 -2.89189640 13.56944815
  -5.01515238  2.89549957  9.45971368
  -5.00849154  0.01636755 11.52465111
  -0.00000000 -5.79099915  9.45971368
  -0.00000000 -0.00000000  5.35868286
  -0.00000000 -2.88681581  7.42256823
  -2.49007106 -4.34566469 11.52465111
  -2.50005583  1.44340791  7.42256823
  -2.50445159 -1.44594580  9.47808512
  -2.51085658 -1.44964372 15.63311623
  -2.51842049  4.32929713 11.52465111
  -2.50736174  1.44762598 13.58591834
   2.49007106 -4.34566469 11.52465111
   2.50005583  1.44340791  7.42256823
   2.50445159 -1.44594580  9.47808512
  -0.00000000 -2.89525196 13.58591834
   0.00000000  2.89189161  9.47808512
   0.00000000 -0.00000000 11.53644182
   1.25088030 -0.72219608  2.76313303
   1.25700139 -3.61483772  4.86147065
   1.27310303 -6.47375536  6.90774189
  -1.24991386  0.72163810  4.84118298
  -1.25346789 -2.16667102  6.90653848
  -1.25621792 -5.06200000  8.96000892
  -3.75110769  2.16570304  6.91294077
  -3.75683206 -0.72324273  8.96240311
  -3.73091226 -3.61724176 11.01113545
   3.75904200  0.71882372  4.86147065
   3.76301153 -2.17257572  6.91669463
   3.76320406 -5.06873485  8.96710142
   1.24965820  2.16887054  6.90653848
   1.25189971 -0.72278464  8.96158555
   1.24598926 -3.61762943 11.01393057
  -1.25206945  3.61513337  8.96240311
  -1.25164016  0.72263479 11.01869193
  -1.25033142 -2.16882477 13.07431003
   6.24298811  2.13433812  6.90774189
   6.27125518 -0.72466289  8.96710142
   6.18560368 -3.57125995 11.06233466
   3.75571163  3.61891663  8.96000892
   3.75595362  0.72975636 11.01393057
   3.75512811 -2.16802422 13.06270648
   1.26716712  5.03968568 11.01113545
   1.25309164  2.16723116 13.07431003
   1.25190247 -0.72278623 15.14786381
   6.18560368  3.57125995  7.37718389
   6.27125518  0.72466289  9.47241713
   6.24298811 -2.13433812 11.53177666
   3.76320406  5.06873485  9.47241713
   3.76301153  2.17257572 11.52282392
   3.75904200 -0.71882372 13.57804790
   1.27310303  6.47375536 11.53177666
   1.25700139  3.61483772 13.57804790
   1.25088030  0.72219608 15.67638552
   1.25190247  0.72278623  3.29165474
   1.25309164 -2.16723116  5.36520852
   1.26716712 -5.03968568  7.42838310
  -1.25033142  2.16882477  5.36520852
  -1.25164016 -0.72263479  7.42082662
  -1.25206945 -3.61513337  9.47711544
  -3.73091226  3.61724176  7.42838310
  -3.75683206  0.72324273  9.47711544
  -3.75110769 -2.16570304 11.52657779
   3.75512811  2.16802422  5.37681207
   3.75595362 -0.72975636  7.42558798
   3.75571163 -3.61891663  9.47950963
   1.24598926  3.61762943  7.42558798
   1.25189971  0.72278464  9.47793301
   1.24965820 -2.16887054 11.53298007
  -1.25621792  5.06200000  9.47950963
  -1.25346789  2.16667102 11.53298007
  -1.24991386 -0.72163810 13.59833557
  -1.25088030 -0.72219608  2.76313303
  -1.25700139 -3.61483772  4.86147065
  -1.27310303 -6.47375536  6.90774189
  -3.75904200  0.71882372  4.86147065
  -3.76301153 -2.17257572  6.91669463
  -3.76320406 -5.06873485  8.96710142
  -6.24298811  2.13433812  6.90774189
  -6.27125518 -0.72466289  8.96710142
  -6.18560368 -3.57125995 11.06233466
   1.24991386  0.72163810  4.84118298
   1.25346789 -2.16667102  6.90653848
   1.25621792 -5.06200000  8.96000892
  -1.24965820  2.16887054  6.90653848
  -1.25189971 -0.72278464  8.96158555
  -1.24598926 -3.61762943 11.01393057
  -3.75571163  3.61891663  8.96000892
  -3.75595362  0.72975636 11.01393057
  -3.75512811 -2.16802422 13.06270648
   3.75110769  2.16570304  6.91294077
   3.75683206 -0.72324273  8.96240311
   3.73091226 -3.61724176 11.01113545
   1.25206945  3.61513337  8.96240311
   1.25164016  0.72263479 11.01869193
   1.25033142 -2.16882477 13.07431003
  -1.26716712  5.03968568 11.01113545
  -1.25309164  2.16723116 13.07431003
  -1.25190247 -0.72278623 15.14786381
  -6.18560368  3.57125995  7.37718389
  -6.27125518  0.72466289  9.47241713
  -6.24298811 -2.13433812 11.53177666
  -1.25190247  0.72278623  3.29165474
  -1.25309164 -2.16723116  5.36520852
  -1.26716712 -5.03968568  7.42838310
  -3.75512811  2.16802422  5.37681207
  -3.75595362 -0.72975636  7.42558798
  -3.75571163 -3.61891663  9.47950963
  -3.76320406  5.06873485  9.47241713
  -3.76301153  2.17257572 11.52282392
  -3.75904200 -0.71882372 13.57804790
   1.25033142  2.16882477  5.36520852
   1.25164016 -0.72263479  7.42082662
   1.25206945 -3.61513337  9.47711544
  -1.24598926  3.61762943  7.42558798
  -1.25189971  0.72278464  9.47793301
  -1.24965820 -2.16887054 11.53298007
  -1.27310303  6.47375536 11.53177666
  -1.25700139  3.61483772 13.57804790
  -1.25088030  0.72219608 15.67638552
   3.73091226  3.61724176  7.42838310
   3.75683206  0.72324273  9.47711544
   3.75110769 -2.16570304 11.52657779
   1.25621792  5.06200000  9.47950963
   1.25346789  2.16667102 11.53298007
   1.24991386 -0.72163810 13.59833557
  -0.00000000 -2.89928745  2.80640232
  -0.00000000 -5.78379280  4.87007040
  -2.51085658  1.44964372  2.80640232
  -2.50736174 -1.44762598  4.85360021
  -2.51842049 -4.32929713  6.91486744
  -5.00891149  2.89189640  4.87007040
  -5.00849154 -0.01636755  6.91486744
  -5.01515238 -2.89549957  8.97980487
   2.51085658  1.44964372  2.80640232
   2.50736174 -1.44762598  4.85360021
   2.51842049 -4.32929713  6.91486744
   0.00000000  2.89525196  4.85360021
   0.00000000 -0.00000000  6.90307674
  -0.00000000 -2.89189161  8.96143343
  -2.49007106  4.34566469  6.91486744
  -2.50445159  1.44594580  8.96143343
  -2.50005583 -1.44340791 11.01695032
   5.00891149  2.89189640  4.87007040
   5.00849154 -0.01636755  6.91486744
   5.01515238 -2.89549957  8.97980487
   2.49007106  4.34566469  6.91486744
   2.50445159  1.44594580  8.96143343
   2.50005583 -1.44340791 11.01695032
   0.00000000  5.79099915  8.97980487
   0.00000000  2.88681581 11.01695032
   0.00000000 -0.00000000 13.08083569
  -0.00000000 -7.14251989  7.37718389
  -0.00000000 -1.44557245  3.29165474
  -0.00000000 -4.33604845  5.37681207
  -2.50805112 -5.79339774  9.47241713
  -2.50342306 -0.00159361  5.36520852
  -2.50996436 -2.88787307  7.42558798
  -4.96988509 -4.33941725 11.53177666
  -4.99807939  1.42244392  7.42838310
  -5.01192955 -1.44308336  9.47950963
   2.50805112 -5.79339774  9.47241713
   2.50342306 -0.00159361  5.36520852
   2.50996436 -2.88787307  7.42558798
  -0.00000000 -4.34515144 11.52282392
   0.00000000  1.44526957  7.42082662
   0.00000000 -1.44556927  9.47793301
  -2.50204060 -2.89601400 13.57804790
  -2.50476261  2.89189064  9.47711544
  -2.50312609  0.00219952 11.53298007
   4.96988509 -4.33941725 11.53177666
   4.99807939  1.42244392  7.42838310
   5.01192955 -1.44308336  9.47950963
   2.50204060 -2.89601400 13.57804790
   2.50476261  2.89189064  9.47711544
   2.50312609  0.00219952 11.53298007
  -0.00000000 -1.44439215 15.67638552
   0.00000000  4.33140607 11.52657779
   0.00000000  1.44327621 13.59833557
 


--------------------------------------------------------------------------------------------------------


 use parallel FFT for orbitals z direction half grid
 k-point  1 :   0.0000 0.0000 0.0000  plane waves:   10988

 maximum and minimum number of plane-waves per node :       696      679

 maximum number of plane-waves:     10988
 maximum index in each direction: 
   IXMAX=   17   IYMAX=   17   IZMAX=   17
   IXMIN=  -17   IYMIN=  -17   IZMIN=    0


 real space projection operators:
  total allocation   :      40841.81 KBytes
  max/ min on nodes  :       2928.50       2334.94


 parallel 3D FFT for wavefunctions:
    minimum data exchange during FFTs selected (reduces bandwidth)
 parallel 3D FFT for charge:
    minimum data exchange during FFTs selected (reduces bandwidth)


 FFT grid for exact exchange (Hartree Fock) 
  NGX = 36; NGY = 36; NGZ = 36

 use parallel FFT for orbitals z direction half grid
 
 Radii for the augmentation spheres in the non-local exchange
 for species   1 augmentation radius   1.055 (default was   0.989)
       energy cutoff for augmentation   1600.0
 for species   2 augmentation radius   0.795 (default was   0.699)
       energy cutoff for augmentation   1600.0

 real space projection operators:
  total allocation   :       1318.99 KBytes
  max/ min on nodes  :        110.25         69.47

 Maximum index for augmentation-charges in exchange            37
  SETUP_FOCK is finished

 total amount of memory used by VASP MPI-rank0    40004. kBytes
=======================================================================

   base      :      30000. kBytes
   nonlr-proj:       3647. kBytes
   fftplans  :       1350. kBytes
   grid      :       3557. kBytes
   one-center:         43. kBytes
   HF        :          9. kBytes
   wavefun   :       1398. kBytes
 
     INWAV:  cpu time    0.3824: real time    0.3867
 Broyden mixing: mesh for mixing (old mesh)
   NGX = 35   NGY = 35   NGZ = 35
  (NGX  =140   NGY  =140   NGZ  =140)
  gives a total of  42875 points

 initial charge density was supplied:
 charge density of overlapping atoms calculated
 number of electron     860.0000000 magnetization     129.0000000
 charge density for first step will be calculated from the start-wavefunctions


--------------------------------------------------------------------------------------------------------


 Maximum index for non-local projection operator           457
 Maximum index for augmentation-charges           529 (set IRDMAX)


--------------------------------------------------------------------------------------------------------


 initial charge from wavefunction
 First call to EWALD:  gamma=   0.166
 Maximum number of real-space cells 3x 3x 3
 Maximum number of reciprocal cells 3x 3x 3

    FEWALD:  cpu time    0.0106: real time    0.0106

 ----------------------------------------------------------------------------- 
|                                                                             |
|           W    W    AA    RRRRR   N    N  II  N    N   GGGG   !!!           |
|           W    W   A  A   R    R  NN   N  II  NN   N  G    G  !!!           |
|           W    W  A    A  R    R  N N  N  II  N N  N  G       !!!           |
|           W WW W  AAAAAA  RRRRR   N  N N  II  N  N N  G  GGG   !            |
|           WW  WW  A    A  R   R   N   NN  II  N   NN  G    G                |
|           W    W  A    A  R    R  N    N  II  N    N   GGGG   !!!           |
|                                                                             |
|      ALGO=A and IALGO=5X tend to fail with the tetrahedron method           |
|      (e.g. Bloechls method ISMEAR=-5 is not variational)                    |
|      please switch to IMSEAR=0-n, except for DOS calculations               |
|      For DOS calculations use IALGO=53 after preconverging with ISMEAR>=0   |
|          I HOPE YOU KNOW, WHAT YOU ARE  DOING                               |
|                                                                             |
 ----------------------------------------------------------------------------- 



--------------------------------------- Iteration      1(   1)  ---------------------------------------


    POTLOK:  cpu time    0.1484: real time    0.1486
    SETDIJ:  cpu time    0.0502: real time    0.0502
    TRIAL :  cpu time   10.3718: real time    9.9925
    CORREC:  cpu time   10.0332: real time    9.7719
    CHARGE:  cpu time    0.0271: real time    0.0272
    --------------------------------------------
      LOOP:  cpu time   20.6383: real time   20.0004

 eigenvalue-minimisations  :     0
 total energy-change (2. order) :-0.2401261E+04  (-0.5482158E+01)
 number of electron     859.9999991 magnetization       1.9999999
 augmentation part       19.9118021 magnetization       0.1176460

 Free energy of the ion-electron system (eV)
  ---------------------------------------------------
  alpha Z        PSCENC =      3112.96981489
  Ewald energy   TEWEN  =    -37448.55501798
  -Hartree energ DENC   =     -2886.16328778
  -exchange      EXHF   =      1984.15051245
  -V(xc)+E(xc)   XCENC  =      2425.45997858
  PAW double counting   =     14902.43380233   -15085.27977048
  entropy T*S    EENTRO =         0.00000000
  eigenvalues    EBANDS =      -463.43528634
  atomic energy  EATOM  =     31057.15824686
  ---------------------------------------------------
  free energy    TOTEN  =     -2401.26100746 eV

  energy without entropy =    -2401.26100746  energy(sigma->0) =    -2401.26100746
  exchange ACFDT corr.  =        -0.02326161  see jH, gK, PRB 81, 115126


--------------------------------------------------------------------------------------------------------




--------------------------------------- Iteration      1(   2)  ---------------------------------------


    POTLOK:  cpu time    0.1249: real time    0.1249
    SETDIJ:  cpu time    0.0435: real time    0.0435
    TRIAL :  cpu time   10.2050: real time    9.8448
    CORREC:  cpu time    9.9090: real time    9.6646
    CHARGE:  cpu time    0.0218: real time    0.0218
    --------------------------------------------
      LOOP:  cpu time   20.3065: real time   19.7021

 eigenvalue-minimisations  :     0
 total energy-change (2. order) :-0.5486071E+01  (-0.2040832E+01)
 number of electron     859.9999991 magnetization       1.9999999
 augmentation part       19.9202255 magnetization       0.1214942

 Free energy of the ion-electron system (eV)
  ---------------------------------------------------
  alpha Z        PSCENC =      3112.96981489
  Ewald energy   TEWEN  =    -37448.55501798
  -Hartree energ DENC   =     -2882.08049946
  -exchange      EXHF   =      1983.83063737
  -V(xc)+E(xc)   XCENC  =      2425.28433646
  PAW double counting   =     14899.04438437   -15081.92841012
  entropy T*S    EENTRO =         0.00000000
  eigenvalues    EBANDS =      -472.47057049
  atomic energy  EATOM  =     31057.15824686
  ---------------------------------------------------
  free energy    TOTEN  =     -2406.74707809 eV

  energy without entropy =    -2406.74707809  energy(sigma->0) =    -2406.74707809
  exchange ACFDT corr.  =        -0.02510943  see jH, gK, PRB 81, 115126


--------------------------------------------------------------------------------------------------------




--------------------------------------- Iteration      1(   3)  ---------------------------------------


    POTLOK:  cpu time    0.1219: real time    0.1220
    SETDIJ:  cpu time    0.0424: real time    0.0424
    TRIAL :  cpu time   10.2635: real time    9.8913
    CORREC:  cpu time    9.9327: real time    9.6880
    CHARGE:  cpu time    0.0217: real time    0.0217
    --------------------------------------------
      LOOP:  cpu time   20.3825: real time   19.7658

 eigenvalue-minimisations  :     0
 total energy-change (2. order) :-0.2048662E+01  (-0.4326217E+00)
 number of electron     859.9999991 magnetization       1.9999999
 augmentation part       19.9422539 magnetization       0.1239351

 Free energy of the ion-electron system (eV)
  ---------------------------------------------------
  alpha Z        PSCENC =      3112.96981489
  Ewald energy   TEWEN  =    -37448.55501798
  -Hartree energ DENC   =     -2882.69253760
  -exchange      EXHF   =      1983.74670108
  -V(xc)+E(xc)   XCENC  =      2425.30090632
  PAW double counting   =     14900.64273859   -15083.56444473
  entropy T*S    EENTRO =         0.00000000
  eigenvalues    EBANDS =      -473.80214761
  atomic energy  EATOM  =     31057.15824686
  ---------------------------------------------------
  free energy    TOTEN  =     -2408.79574018 eV

  energy without entropy =    -2408.79574018  energy(sigma->0) =    -2408.79574018
  exchange ACFDT corr.  =        -0.03125330  see jH, gK, PRB 81, 115126


--------------------------------------------------------------------------------------------------------




--------------------------------------- Iteration      1(   4)  ---------------------------------------


    POTLOK:  cpu time    0.1243: real time    0.1243
    SETDIJ:  cpu time    0.0448: real time    0.0448
    TRIAL :  cpu time   10.1248: real time    9.7655
    CORREC:  cpu time    9.9737: real time    9.7304
    CHARGE:  cpu time    0.0217: real time    0.0217
    --------------------------------------------
      LOOP:  cpu time   20.2896: real time   19.6870

 eigenvalue-minimisations  :     0
 total energy-change (2. order) :-0.4289813E+00  (-0.9789510E-01)
 number of electron     859.9999991 magnetization       1.9999999
 augmentation part       19.9511435 magnetization       0.1243699

 Free energy of the ion-electron system (eV)
  ---------------------------------------------------
  alpha Z        PSCENC =      3112.96981489
  Ewald energy   TEWEN  =    -37448.55501798
  -Hartree energ DENC   =     -2883.87006796
  -exchange      EXHF   =      1983.91086504
  -V(xc)+E(xc)   XCENC  =      2425.43639552
  PAW double counting   =     14906.86632733   -15089.85782393
  entropy T*S    EENTRO =         0.00000000
  eigenvalues    EBANDS =      -473.28346124
  atomic energy  EATOM  =     31057.15824686
  ---------------------------------------------------
  free energy    TOTEN  =     -2409.22472147 eV

  energy without entropy =    -2409.22472147  energy(sigma->0) =    -2409.22472147
  exchange ACFDT corr.  =        -0.03264234  see jH, gK, PRB 81, 115126


--------------------------------------------------------------------------------------------------------




--------------------------------------- Iteration      1(   5)  ---------------------------------------


    POTLOK:  cpu time    0.1181: real time    0.1181
    SETDIJ:  cpu time    0.0439: real time    0.0439
    TRIAL :  cpu time   10.1213: real time    9.7613
    CORREC:  cpu time    9.9066: real time    9.6635
    CHARGE:  cpu time    0.0218: real time    0.0218
    --------------------------------------------
      LOOP:  cpu time   20.2121: real time   19.6091

 eigenvalue-minimisations  :     0
 total energy-change (2. order) :-0.9807315E-01  (-0.3893553E-01)
 number of electron     859.9999991 magnetization       1.9999999
 augmentation part       19.9542753 magnetization       0.1248451

 Free energy of the ion-electron system (eV)
  ---------------------------------------------------
  alpha Z        PSCENC =      3112.96981489
  Ewald energy   TEWEN  =    -37448.55501798
  -Hartree energ DENC   =     -2884.99662882
  -exchange      EXHF   =      1983.95653020
  -V(xc)+E(xc)   XCENC  =      2425.46674673
  PAW double counting   =     14908.10082226   -15091.11546925
  entropy T*S    EENTRO =         0.00000000
  eigenvalues    EBANDS =      -472.30783950
  atomic energy  EATOM  =     31057.15824686
  ---------------------------------------------------
  free energy    TOTEN  =     -2409.32279461 eV

  energy without entropy =    -2409.32279461  energy(sigma->0) =    -2409.32279461
  exchange ACFDT corr.  =        -0.03372940  see jH, gK, PRB 81, 115126


--------------------------------------------------------------------------------------------------------




--------------------------------------- Iteration      1(   6)  ---------------------------------------


    POTLOK:  cpu time    0.1237: real time    0.1237
    SETDIJ:  cpu time    0.0439: real time    0.0439
    TRIAL :  cpu time   10.1036: real time    9.7454
    CORREC:  cpu time    9.9055: real time    9.6613
    CHARGE:  cpu time    0.0221: real time    0.0221
    --------------------------------------------
      LOOP:  cpu time   20.1992: real time   19.5968

 eigenvalue-minimisations  :     0
 total energy-change (2. order) :-0.3880693E-01  (-0.1498866E-01)
 number of electron     859.9999991 magnetization       1.9999999
 augmentation part       19.9550217 magnetization       0.1250524

 Free energy of the ion-electron system (eV)
  ---------------------------------------------------
  alpha Z        PSCENC =      3112.96981489
  Ewald energy   TEWEN  =    -37448.55501798
  -Hartree energ DENC   =     -2884.44142455
  -exchange      EXHF   =      1983.93875652
  -V(xc)+E(xc)   XCENC  =      2425.44686574
  PAW double counting   =     14907.39891912   -15090.41716394
  entropy T*S    EENTRO =         0.00000000
  eigenvalues    EBANDS =      -472.86059821
  atomic energy  EATOM  =     31057.15824686
  ---------------------------------------------------
  free energy    TOTEN  =     -2409.36160154 eV

  energy without entropy =    -2409.36160154  energy(sigma->0) =    -2409.36160154
  exchange ACFDT corr.  =        -0.03490155  see jH, gK, PRB 81, 115126


--------------------------------------------------------------------------------------------------------




--------------------------------------- Iteration      1(   7)  ---------------------------------------


    POTLOK:  cpu time    0.1235: real time    0.1235
    SETDIJ:  cpu time    0.0427: real time    0.0427
    TRIAL :  cpu time   10.2306: real time    9.8578
    CORREC:  cpu time    9.9007: real time    9.6536
    CHARGE:  cpu time    0.0221: real time    0.0222
    --------------------------------------------
      LOOP:  cpu time   20.3199: real time   19.7000

 eigenvalue-minimisations  :     0
 total energy-change (2. order) :-0.1497638E-01  (-0.5520485E-02)
 number of electron     859.9999991 magnetization       1.9999999
 augmentation part       19.9548066 magnetization       0.1251548

 Free energy of the ion-electron system (eV)
  ---------------------------------------------------
  alpha Z        PSCENC =      3112.96981489
  Ewald energy   TEWEN  =    -37448.55501798
  -Hartree energ DENC   =     -2884.22436827
  -exchange      EXHF   =      1983.92493765
  -V(xc)+E(xc)   XCENC  =      2425.43418847
  PAW double counting   =     14906.87859277   -15089.89392799
  entropy T*S    EENTRO =         0.00000000
  eigenvalues    EBANDS =      -473.06904432
  atomic energy  EATOM  =     31057.15824686
  ---------------------------------------------------
  free energy    TOTEN  =     -2409.37657792 eV

  energy without entropy =    -2409.37657792  energy(sigma->0) =    -2409.37657792
  exchange ACFDT corr.  =        -0.03598565  see jH, gK, PRB 81, 115126


--------------------------------------------------------------------------------------------------------




--------------------------------------- Iteration      1(   8)  ---------------------------------------


    POTLOK:  cpu time    0.1235: real time    0.1235
    SETDIJ:  cpu time    0.0436: real time    0.0436
    TRIAL :  cpu time   10.1091: real time    9.7497
    CORREC:  cpu time    9.9047: real time    9.6632
    CHARGE:  cpu time    0.0220: real time    0.0220
    --------------------------------------------
      LOOP:  cpu time   20.2033: real time   19.6023

 eigenvalue-minimisations  :     0
 total energy-change (2. order) :-0.5513500E-02  (-0.2052926E-02)
 number of electron     859.9999991 magnetization       1.9999999
 augmentation part       19.9543952 magnetization       0.1252513

 Free energy of the ion-electron system (eV)
  ---------------------------------------------------
  alpha Z        PSCENC =      3112.96981489
  Ewald energy   TEWEN  =    -37448.55501798
  -Hartree energ DENC   =     -2884.29989957
  -exchange      EXHF   =      1983.92280948
  -V(xc)+E(xc)   XCENC  =      2425.43493454
  PAW double counting   =     14906.86512387   -15089.87732923
  entropy T*S    EENTRO =         0.00000000
  eigenvalues    EBANDS =      -473.00077428
  atomic energy  EATOM  =     31057.15824686
  ---------------------------------------------------
  free energy    TOTEN  =     -2409.38209142 eV

  energy without entropy =    -2409.38209142  energy(sigma->0) =    -2409.38209142
  exchange ACFDT corr.  =        -0.03664276  see jH, gK, PRB 81, 115126


--------------------------------------------------------------------------------------------------------




--------------------------------------- Iteration      1(   9)  ---------------------------------------


    POTLOK:  cpu time    0.1234: real time    0.1234
    SETDIJ:  cpu time    0.0438: real time    0.0438
    TRIAL :  cpu time   10.1247: real time    9.7666
    CORREC:  cpu time    9.9338: real time    9.6877
    CHARGE:  cpu time    0.0220: real time    0.0220
    --------------------------------------------
      LOOP:  cpu time   20.2480: real time   19.6439

 eigenvalue-minimisations  :     0
 total energy-change (2. order) :-0.2052172E-02  (-0.8255949E-03)
 number of electron     859.9999991 magnetization       1.9999999
 augmentation part       19.9540921 magnetization       0.1253145

 Free energy of the ion-electron system (eV)
  ---------------------------------------------------
  alpha Z        PSCENC =      3112.96981489
  Ewald energy   TEWEN  =    -37448.55501798
  -Hartree energ DENC   =     -2884.30245116
  -exchange      EXHF   =      1983.92044334
  -V(xc)+E(xc)   XCENC  =      2425.43623190
  PAW double counting   =     14906.91942547   -15089.93036890
  entropy T*S    EENTRO =         0.00000000
  eigenvalues    EBANDS =      -473.00046802
  atomic energy  EATOM  =     31057.15824686
  ---------------------------------------------------
  free energy    TOTEN  =     -2409.38414359 eV

  energy without entropy =    -2409.38414359  energy(sigma->0) =    -2409.38414359
  exchange ACFDT corr.  =        -0.03699508  see jH, gK, PRB 81, 115126


--------------------------------------------------------------------------------------------------------




--------------------------------------- Iteration      1(  10)  ---------------------------------------


    POTLOK:  cpu time    0.1242: real time    0.1242
    SETDIJ:  cpu time    0.0438: real time    0.0438
    TRIAL :  cpu time   10.1503: real time    9.7892
    CORREC:  cpu time    9.9007: real time    9.6543
    CHARGE:  cpu time    0.0220: real time    0.0220
    --------------------------------------------
      LOOP:  cpu time   20.2413: real time   19.6338

 eigenvalue-minimisations  :     0
 total energy-change (2. order) :-0.8244133E-03  (-0.3651401E-03)
 number of electron     859.9999991 magnetization       1.9999999
 augmentation part       19.9539227 magnetization       0.1253841

 Free energy of the ion-electron system (eV)
  ---------------------------------------------------
  alpha Z        PSCENC =      3112.96981489
  Ewald energy   TEWEN  =    -37448.55501798
  -Hartree energ DENC   =     -2884.30309784
  -exchange      EXHF   =      1983.91701061
  -V(xc)+E(xc)   XCENC  =      2425.43573026
  PAW double counting   =     14906.92492860   -15089.93556622
  entropy T*S    EENTRO =         0.00000000
  eigenvalues    EBANDS =      -472.99701719
  atomic energy  EATOM  =     31057.15824686
  ---------------------------------------------------
  free energy    TOTEN  =     -2409.38496801 eV

  energy without entropy =    -2409.38496801  energy(sigma->0) =    -2409.38496801
  exchange ACFDT corr.  =        -0.03721261  see jH, gK, PRB 81, 115126


--------------------------------------------------------------------------------------------------------




--------------------------------------- Iteration      1(  11)  ---------------------------------------


    POTLOK:  cpu time    0.1226: real time    0.1226
    SETDIJ:  cpu time    0.0422: real time    0.0422
    TRIAL :  cpu time   10.1322: real time    9.7770
    CORREC:  cpu time    9.9176: real time    9.6756
    CHARGE:  cpu time    0.0254: real time    0.0254
    --------------------------------------------
      LOOP:  cpu time   20.2404: real time   19.6432

 eigenvalue-minimisations  :     0
 total energy-change (2. order) :-0.3646139E-03  (-0.1335865E-03)
 number of electron     859.9999991 magnetization       1.9999999
 augmentation part       19.9539445 magnetization       0.1254152

 Free energy of the ion-electron system (eV)
  ---------------------------------------------------
  alpha Z        PSCENC =      3112.96981489
  Ewald energy   TEWEN  =    -37448.55501798
  -Hartree energ DENC   =     -2884.27394446
  -exchange      EXHF   =      1983.91381731
  -V(xc)+E(xc)   XCENC  =      2425.43441966
  PAW double counting   =     14906.90064070   -15089.91125079
  entropy T*S    EENTRO =         0.00000000
  eigenvalues    EBANDS =      -473.02205882
  atomic energy  EATOM  =     31057.15824686
  ---------------------------------------------------
  free energy    TOTEN  =     -2409.38533262 eV

  energy without entropy =    -2409.38533262  energy(sigma->0) =    -2409.38533262
  exchange ACFDT corr.  =        -0.03735351  see jH, gK, PRB 81, 115126


--------------------------------------------------------------------------------------------------------




--------------------------------------- Iteration      1(  12)  ---------------------------------------


    POTLOK:  cpu time    0.1251: real time    0.1251
    SETDIJ:  cpu time    0.0435: real time    0.0435
    TRIAL :  cpu time   10.0858: real time    9.7271
    CORREC:  cpu time    9.9279: real time    9.6839
    CHARGE:  cpu time    0.0221: real time    0.0221
    --------------------------------------------
      LOOP:  cpu time   20.2048: real time   19.6020

 eigenvalue-minimisations  :     0
 total energy-change (2. order) :-0.1335430E-03  (-0.6369646E-04)
 number of electron     859.9999991 magnetization       1.9999999
 augmentation part       19.9540166 magnetization       0.1254220

 Free energy of the ion-electron system (eV)
  ---------------------------------------------------
  alpha Z        PSCENC =      3112.96981489
  Ewald energy   TEWEN  =    -37448.55501798
  -Hartree energ DENC   =     -2884.27710469
  -exchange      EXHF   =      1983.91363727
  -V(xc)+E(xc)   XCENC  =      2425.43441981
  PAW double counting   =     14906.90523564   -15089.91609028
  entropy T*S    EENTRO =         0.00000000
  eigenvalues    EBANDS =      -473.01860769
  atomic energy  EATOM  =     31057.15824686
  ---------------------------------------------------
  free energy    TOTEN  =     -2409.38546616 eV

  energy without entropy =    -2409.38546616  energy(sigma->0) =    -2409.38546616
  exchange ACFDT corr.  =        -0.03741036  see jH, gK, PRB 81, 115126


--------------------------------------------------------------------------------------------------------




--------------------------------------- Iteration      1(  13)  ---------------------------------------


    POTLOK:  cpu time    0.1234: real time    0.1234
    SETDIJ:  cpu time    0.0436: real time    0.0436
    TRIAL :  cpu time   10.1427: real time    9.7812
    CORREC:  cpu time    9.8867: real time    9.6430
    CHARGE:  cpu time    0.0218: real time    0.0218
    --------------------------------------------
      LOOP:  cpu time   20.2184: real time   19.6133

 eigenvalue-minimisations  :     0
 total energy-change (2. order) :-0.6369880E-04  (-0.2587201E-04)
 number of electron     859.9999991 magnetization       1.9999999
 augmentation part       19.9540457 magnetization       0.1254270

 Free energy of the ion-electron system (eV)
  ---------------------------------------------------
  alpha Z        PSCENC =      3112.96981489
  Ewald energy   TEWEN  =    -37448.55501798
  -Hartree energ DENC   =     -2884.28995547
  -exchange      EXHF   =      1983.91459715
  -V(xc)+E(xc)   XCENC  =      2425.43490580
  PAW double counting   =     14906.91988870   -15089.93103917
  entropy T*S    EENTRO =         0.00000000
  eigenvalues    EBANDS =      -473.00697065
  atomic energy  EATOM  =     31057.15824686
  ---------------------------------------------------
  free energy    TOTEN  =     -2409.38552986 eV

  energy without entropy =    -2409.38552986  energy(sigma->0) =    -2409.38552986
  exchange ACFDT corr.  =        -0.03740925  see jH, gK, PRB 81, 115126


--------------------------------------------------------------------------------------------------------


  average scaling for gradient   1.3593


 average (electrostatic) potential at core
  the test charge radii are     0.9892  0.6991
  (the norm of the test charge is              1.0000)
       1 -74.8551       2 -41.4546       3 -41.5917       4 -41.5319       5 -41.5865
       6 -41.5919       7 -41.6348       8 -41.5118       9 -41.5148      10 -41.6968
      11 -41.5847      12 -41.6049      13 -41.5777      14 -41.5898      15 -41.6033
      16 -41.5913      17 -41.5462      18 -41.5774      19 -41.5799      20 -41.6929
      21 -41.6526      22 -41.3852      23 -41.5737      24 -41.5558      25 -41.5899
      26 -40.3451      27 -41.5672      28 -41.5754      29 -41.5615      30 -41.5534
      31 -41.5613      32 -41.7601      33 -41.4868      34 -41.5540      35 -41.4875
      36 -41.6370      37 -41.5469      38 -41.5032      39 -41.6323      40 -41.5064
      41 -41.5663      42 -41.5665      43 -41.6314      44 -41.5658      45 -41.6215
      46 -41.5150      47 -41.5816      48 -41.5615      49 -41.5795      50 -41.6215
      51 -41.5918      52 -41.5622      53 -41.5920      54 -41.5980      55 -41.4510
      56 -41.5865      57 -41.5166      58 -41.5923      59 -41.5921      60 -41.5163
      61 -41.5306      62 -41.6346      63 -41.6956      64 -41.5849      65 -41.5901
      66 -41.5460      67 -41.6048      68 -41.6033      69 -41.5768      70 -41.5781
      71 -41.5913      72 -41.5799      73 -41.6967      74 -41.5733      75 -40.3288
      76 -41.6522      77 -41.5555      78 -41.5662      79 -41.3879      80 -41.5900
      81 -41.5770      82 -41.4911      83 -41.5928      84 -41.2634      85 -41.5931
      86 -41.5929      87 -41.5697      88 -41.2660      89 -41.5700      90 -41.7546
      91 -41.4499      92 -41.5858      93 -41.4952      94 -41.5861      95 -41.5890
      96 -41.5873      97 -41.4916      98 -41.5863      99 -41.6500     100 -41.6080
     101 -41.6009     102 -41.5360     103 -41.6002     104 -41.6175     105 -41.5876
     106 -41.5377     107 -41.5878     108 -41.5584     109 -41.7547     110 -41.5698
     111 -41.2654     112 -41.5699     113 -41.5930     114 -41.5932     115 -41.2639
     116 -41.5929     117 -41.4895     118 -41.5585     119 -41.5878     120 -41.5377
     121 -41.5876     122 -41.6176     123 -41.6005     124 -41.5359     125 -41.6006
     126 -41.6077     127 -41.6502     128 -41.5866     129 -41.4914     130 -41.5870
     131 -41.5890     132 -41.5859     133 -41.4958     134 -41.5861     135 -41.4499
     136 -40.3306     137 -41.5731     138 -41.6959     139 -41.5770     140 -41.5898
     141 -41.3877     142 -41.5665     143 -41.5556     144 -41.6523     145 -41.5460
     146 -41.5900     147 -41.5847     148 -41.5801     149 -41.5914     150 -41.5783
     151 -41.5766     152 -41.6031     153 -41.6048     154 -41.5177     155 -41.5869
     156 -41.4508     157 -41.6955     158 -41.6346     159 -41.5305     160 -41.5162
     161 -41.5920     162 -41.5921     163 -41.5535     164 -41.5611     165 -41.5539
     166 -41.6369     167 -41.4874     168 -41.5615     169 -41.4870     170 -41.7601
     171 -41.5149     172 -41.5614     173 -41.5812     174 -41.5624     175 -41.5981
     176 -41.5922     177 -41.5795     178 -41.5917     179 -41.6215     180 -41.5472
     181 -41.6329     182 -41.5032     183 -41.6311     184 -41.6214     185 -41.5659
     186 -41.5064     187 -41.5665     188 -41.5663     189 -40.3437     190 -41.5753
     191 -41.5668     192 -41.5738     193 -41.5900     194 -41.5559     195 -41.6929
     196 -41.3854     197 -41.6525     198 -41.5463     199 -41.5801     200 -41.5773
     201 -41.5901     202 -41.5912     203 -41.6034     204 -41.5845     205 -41.5775
     206 -41.6047     207 -41.5113     208 -41.6973     209 -41.5149     210 -41.5862
     211 -41.6346     212 -41.5918     213 -41.4549     214 -41.5323     215 -41.5919
 
 
 
 E-fermi :   9.7092     XC(G=0): -10.8377     alpha+bet :-18.0036


 spin component 1

 k-point     1 :       0.0000    0.0000    0.0000
  band No.  band energies     occupation 
      1     -14.4013      1.00000
      2     -13.3894      1.00000
      3     -13.2949      1.00000
      4     -13.3100      1.00000
      5     -13.3198      1.00000
      6     -13.2226      1.00000
      7     -13.1559      1.00000
      8     -12.2685      1.00000
      9     -12.2802      1.00000
     10     -12.2559      1.00000
     11     -12.2123      1.00000
     12     -12.2063      1.00000
     13     -12.1901      1.00000
[...]
    4ORBIT:  cpu time    0.0000: real time    0.0000
 


 total charge     
 
# of ion       s       p       d       tot
------------------------------------------
    1        0.700   0.962   0.000   1.662
    2        0.836   1.736   0.000   2.573
    3        0.840   1.758   0.000   2.598
    4        0.841   1.762   0.000   2.603
    5        0.841   1.764   0.000   2.605
    6        0.841   1.763   0.000   2.604
    7        0.841   1.763   0.000   2.604
    8        0.842   1.756   0.000   2.598
    9        0.841   1.765   0.000   2.606
   10        0.844   1.760   0.000   2.604
   11        0.840   1.761   0.000   2.601
   12        0.840   1.762   0.000   2.602
   13        0.840   1.763   0.000   2.603
   14        0.841   1.762   0.000   2.603
   15        0.840   1.763   0.000   2.604
   16        0.841   1.765   0.000   2.606
   17        0.840   1.760   0.000   2.600
   18        0.841   1.766   0.000   2.607
   19        0.840   1.760   0.000   2.600
   20        0.845   1.764   0.000   2.609
   21        0.841   1.766   0.000   2.607
   22        0.844   1.780   0.000   2.624
   23        0.841   1.763   0.000   2.604
   24        0.842   1.772   0.000   2.614
   25        0.841   1.764   0.000   2.605
   26        0.845   1.770   0.000   2.615
   27        0.841   1.764   0.000   2.604
   28        0.840   1.756   0.000   2.596
   29        0.840   1.756   0.000   2.597
   30        0.841   1.766   0.000   2.607
   31        0.840   1.756   0.000   2.597
   32        0.843   1.749   0.000   2.592
   33        0.842   1.773   0.000   2.615
   34        0.841   1.766   0.000   2.607
   35        0.842   1.773   0.000   2.615
   36        0.841   1.765   0.000   2.606
   37        0.838   1.751   0.000   2.590
   38        0.840   1.751   0.000   2.591
   39        0.842   1.765   0.000   2.607
   40        0.840   1.751   0.000   2.591
   41        0.840   1.763   0.000   2.604
   42        0.841   1.766   0.000   2.607
   43        0.842   1.765   0.000   2.607
   44        0.841   1.766   0.000   2.607
   45        0.841   1.764   0.000   2.605
   46        0.840   1.761   0.000   2.601
   47        0.841   1.765   0.000   2.606
   48        0.840   1.759   0.000   2.599
   49        0.841   1.765   0.000   2.606
   50        0.841   1.764   0.000   2.605
   51        0.841   1.763   0.000   2.604
   52        0.840   1.759   0.000   2.599
   53        0.841   1.763   0.000   2.604
   54        0.840   1.762   0.000   2.602
   55        0.836   1.736   0.000   2.573
   56        0.841   1.764   0.000   2.605
   57        0.842   1.756   0.000   2.598
   58        0.840   1.758   0.000   2.598
   59        0.841   1.763   0.000   2.604
   60        0.841   1.765   0.000   2.606
   61        0.841   1.762   0.000   2.603
   62        0.841   1.763   0.000   2.604
   63        0.844   1.760   0.000   2.604
   64        0.840   1.761   0.000   2.601
   65        0.841   1.762   0.000   2.603
   66        0.840   1.760   0.000   2.600
   67        0.840   1.762   0.000   2.602
   68        0.840   1.763   0.000   2.604
   69        0.841   1.766   0.000   2.607
   70        0.840   1.763   0.000   2.603
   71        0.841   1.765   0.000   2.606
   72        0.840   1.760   0.000   2.600
   73        0.845   1.764   0.000   2.609
   74        0.841   1.763   0.000   2.604
   75        0.845   1.770   0.000   2.615
   76        0.841   1.766   0.000   2.607
   77        0.842   1.772   0.000   2.614
   78        0.841   1.764   0.000   2.604
   79        0.844   1.780   0.000   2.624
   80        0.841   1.764   0.000   2.605
   81        0.840   1.756   0.000   2.596
   82        0.861   1.728   0.000   2.589
   83        0.841   1.763   0.000   2.604
   84        0.845   1.781   0.000   2.626
   85        0.841   1.763   0.000   2.604
   86        0.842   1.769   0.000   2.610
   87        0.841   1.764   0.000   2.605
   88        0.845   1.781   0.000   2.626
   89        0.841   1.764   0.000   2.605
   90        0.841   1.756   0.000   2.597
   91        0.838   1.752   0.000   2.591
   92        0.840   1.762   0.000   2.603
   93        0.842   1.768   0.000   2.610
   94        0.840   1.762   0.000   2.603
   95        0.841   1.766   0.000   2.607
   96        0.841   1.765   0.000   2.606
   97        0.842   1.768   0.000   2.610
   98        0.841   1.765   0.000   2.606
   99        0.840   1.762   0.000   2.602
  100        0.840   1.757   0.000   2.597
  101        0.841   1.766   0.000   2.607
  102        0.840   1.762   0.000   2.603
  103        0.841   1.766   0.000   2.607
  104        0.841   1.763   0.000   2.603
  105        0.840   1.763   0.000   2.603
  106        0.840   1.762   0.000   2.603
  107        0.840   1.763   0.000   2.603
  108        0.839   1.754   0.000   2.592
  109        0.841   1.756   0.000   2.598
  110        0.841   1.764   0.000   2.605
  111        0.845   1.781   0.000   2.626
  112        0.841   1.764   0.000   2.605
  113        0.842   1.768   0.000   2.610
  114        0.841   1.763   0.000   2.604
  115        0.845   1.781   0.000   2.626
  116        0.841   1.763   0.000   2.604
  117        0.861   1.729   0.000   2.590
  118        0.839   1.754   0.000   2.592
  119        0.840   1.763   0.000   2.603
  120        0.840   1.762   0.000   2.603
  121        0.840   1.763   0.000   2.603
  122        0.841   1.763   0.000   2.603
  123        0.841   1.766   0.000   2.607
  124        0.840   1.762   0.000   2.603
  125        0.841   1.766   0.000   2.607
  126        0.840   1.757   0.000   2.597
  127        0.840   1.762   0.000   2.602
  128        0.841   1.765   0.000   2.606
  129        0.842   1.768   0.000   2.610
  130        0.841   1.765   0.000   2.606
  131        0.841   1.766   0.000   2.607
  132        0.840   1.762   0.000   2.603
  133        0.842   1.768   0.000   2.610
  134        0.840   1.762   0.000   2.603
  135        0.838   1.752   0.000   2.591
  136        0.845   1.770   0.000   2.615
  137        0.841   1.763   0.000   2.604
  138        0.845   1.764   0.000   2.609
  139        0.840   1.756   0.000   2.596
  140        0.841   1.764   0.000   2.605
  141        0.844   1.780   0.000   2.624
  142        0.841   1.764   0.000   2.604
  143        0.842   1.772   0.000   2.614
  144        0.841   1.766   0.000   2.607
  145        0.840   1.760   0.000   2.600
  146        0.841   1.762   0.000   2.603
  147        0.840   1.761   0.000   2.601
  148        0.840   1.760   0.000   2.600
  149        0.841   1.765   0.000   2.606
  150        0.840   1.763   0.000   2.603
  151        0.841   1.766   0.000   2.607
  152        0.840   1.763   0.000   2.604
  153        0.840   1.762   0.000   2.602
  154        0.842   1.755   0.000   2.598
  155        0.841   1.764   0.000   2.605
  156        0.837   1.736   0.000   2.573
  157        0.844   1.760   0.000   2.604
  158        0.841   1.763   0.000   2.604
  159        0.841   1.762   0.000   2.603
  160        0.841   1.765   0.000   2.606
  161        0.841   1.763   0.000   2.604
  162        0.840   1.758   0.000   2.598
  163        0.841   1.766   0.000   2.607
  164        0.840   1.756   0.000   2.596
  165        0.841   1.766   0.000   2.607
  166        0.841   1.765   0.000   2.606
  167        0.842   1.773   0.000   2.615
  168        0.840   1.756   0.000   2.597
  169        0.842   1.773   0.000   2.615
  170        0.843   1.749   0.000   2.592
  171        0.840   1.761   0.000   2.601
  172        0.840   1.759   0.000   2.599
  173        0.841   1.765   0.000   2.606
  174        0.840   1.759   0.000   2.599
  175        0.840   1.762   0.000   2.602
  176        0.841   1.763   0.000   2.604
  177        0.841   1.765   0.000   2.606
  178        0.841   1.763   0.000   2.604
  179        0.841   1.764   0.000   2.605
  180        0.838   1.751   0.000   2.590
  181        0.842   1.765   0.000   2.607
  182        0.840   1.751   0.000   2.591
  183        0.842   1.765   0.000   2.607
  184        0.841   1.764   0.000   2.605
  185        0.841   1.766   0.000   2.607
  186        0.840   1.751   0.000   2.591
  187        0.841   1.766   0.000   2.607
  188        0.840   1.763   0.000   2.604
  189        0.845   1.769   0.000   2.615
  190        0.840   1.756   0.000   2.596
  191        0.841   1.764   0.000   2.604
  192        0.841   1.763   0.000   2.604
  193        0.841   1.764   0.000   2.605
  194        0.842   1.772   0.000   2.614
  195        0.845   1.764   0.000   2.609
  196        0.844   1.780   0.000   2.624
  197        0.841   1.766   0.000   2.607
  198        0.840   1.760   0.000   2.600
  199        0.840   1.760   0.000   2.600
  200        0.841   1.766   0.000   2.607
  201        0.841   1.762   0.000   2.603
  202        0.841   1.765   0.000   2.606
  203        0.840   1.763   0.000   2.604
  204        0.840   1.761   0.000   2.601
  205        0.840   1.763   0.000   2.603
  206        0.840   1.762   0.000   2.602
  207        0.842   1.755   0.000   2.598
  208        0.844   1.760   0.000   2.604
  209        0.841   1.765   0.000   2.606
  210        0.841   1.764   0.000   2.605
  211        0.841   1.763   0.000   2.604
  212        0.841   1.763   0.000   2.604
  213        0.837   1.736   0.000   2.573
  214        0.841   1.762   0.000   2.603
  215        0.840   1.758   0.000   2.598
--------------------------------------------------
tot        180.710 378.124   0.000 558.834
 


 magnetization (x)
 
# of ion       s       p       d       tot
------------------------------------------
    1       -0.004   0.085   0.000   0.081
    2       -0.000  -0.000   0.000  -0.001
    3       -0.000  -0.000   0.000  -0.000
    4       -0.000   0.000   0.000   0.000
    5       -0.000   0.000   0.000   0.000
    6        0.000   0.001   0.000   0.001
    7        0.000   0.005   0.000   0.005
    8        0.002   0.020   0.000   0.022
    9       -0.000   0.000   0.000  -0.000
   10        0.003   0.028   0.000   0.031
   11       -0.000   0.000   0.000   0.000
   12       -0.000   0.000   0.000   0.000
   13        0.000   0.001   0.000   0.001
   14        0.000   0.002   0.000   0.002
   15        0.000   0.001   0.000   0.001
   16        0.000   0.000   0.000   0.001
   17       -0.000   0.000   0.000   0.000
   18        0.000   0.002   0.000   0.002
   19        0.000   0.001   0.000   0.001
   20       -0.000   0.011   0.000   0.011
   21       -0.000  -0.001   0.000  -0.001
   22        0.000   0.003   0.000   0.004
   23        0.000   0.001   0.000   0.001
   24       -0.000   0.000   0.000   0.000
   25       -0.000   0.000   0.000   0.000
   26        0.004   0.037   0.000   0.041
   27       -0.000   0.001   0.000   0.001
   28        0.000   0.006   0.000   0.007
   29        0.000   0.003   0.000   0.003
   30       -0.000  -0.000   0.000  -0.000
   31        0.000   0.003   0.000   0.003
   32        0.003   0.026   0.000   0.029
   33        0.000   0.000   0.000   0.000
   34       -0.000  -0.000   0.000  -0.000
   35        0.000   0.000   0.000   0.000
   36        0.000   0.002   0.000   0.002
   37       -0.000  -0.001   0.000  -0.001
   38        0.000   0.003   0.000   0.004
   39        0.001   0.007   0.000   0.007
   40        0.000   0.003   0.000   0.004
   41        0.000   0.000   0.000   0.000
   42        0.000   0.000   0.000   0.000
   43        0.001   0.007   0.000   0.007
   44        0.000   0.000   0.000   0.000
   45       -0.000   0.000   0.000   0.000
   46        0.000   0.001   0.000   0.001
   47        0.000   0.004   0.000   0.005
   48       -0.000  -0.000   0.000  -0.000
   49        0.000   0.004   0.000   0.004
   50        0.000   0.003   0.000   0.003
   51        0.000   0.001   0.000   0.001
   52       -0.000  -0.000   0.000  -0.000
   53        0.000   0.001   0.000   0.001
   54        0.000   0.001   0.000   0.001
   55       -0.000  -0.000   0.000  -0.001
   56       -0.000   0.000   0.000   0.000
   57        0.002   0.020   0.000   0.022
   58       -0.000  -0.000   0.000  -0.000
   59        0.000   0.001   0.000   0.001
   60       -0.000   0.000   0.000  -0.000
   61       -0.000   0.000   0.000   0.000
   62        0.000   0.005   0.000   0.005
   63        0.003   0.028   0.000   0.031
   64       -0.000   0.000   0.000   0.000
   65        0.000   0.002   0.000   0.002
   66       -0.000   0.000   0.000   0.000
   67       -0.000   0.000   0.000   0.000
   68        0.000   0.001   0.000   0.001
   69        0.000   0.002   0.000   0.002
   70        0.000   0.001   0.000   0.001
   71        0.000   0.000   0.000   0.001
   72        0.000   0.001   0.000   0.001
   73       -0.000   0.011   0.000   0.011
   74        0.000   0.001   0.000   0.001
   75        0.004   0.037   0.000   0.041
   76       -0.000  -0.001   0.000  -0.001
   77       -0.000   0.000   0.000   0.000
   78       -0.000   0.001   0.000   0.001
   79        0.000   0.003   0.000   0.004
   80       -0.000   0.000   0.000   0.000
   81        0.000   0.006   0.000   0.007
   82        0.021   0.253   0.000   0.273
   83        0.000   0.002   0.000   0.002
   84        0.000   0.002   0.000   0.002
   85        0.000   0.002   0.000   0.002
   86        0.000   0.002   0.000   0.003
   87       -0.000   0.000   0.000   0.000
   88        0.000   0.002   0.000   0.002
   89       -0.000   0.000   0.000   0.000
   90       -0.002  -0.003   0.000  -0.005
   91        0.000   0.000   0.000   0.001
   92        0.000   0.001   0.000   0.001
   93        0.001   0.005   0.000   0.006
   94        0.000   0.001   0.000   0.001
   95       -0.000   0.000   0.000   0.000
   96        0.000   0.001   0.000   0.001
   97        0.001   0.005   0.000   0.006
   98        0.000   0.001   0.000   0.001
   99       -0.000  -0.001   0.000  -0.002
  100        0.000   0.003   0.000   0.004
  101        0.000   0.003   0.000   0.004
  102       -0.000   0.000   0.000   0.000
  103        0.000   0.003   0.000   0.004
  104        0.000   0.002   0.000   0.002
  105       -0.000   0.000   0.000   0.000
  106       -0.000   0.000   0.000   0.000
  107       -0.000   0.000   0.000   0.000
  108        0.000   0.000   0.000   0.000
  109       -0.002  -0.003   0.000  -0.005
  110       -0.000   0.000   0.000   0.000
  111        0.000   0.002   0.000   0.002
  112       -0.000   0.000   0.000   0.000
  113        0.000   0.003   0.000   0.003
  114        0.000   0.002   0.000   0.002
  115        0.000   0.002   0.000   0.002
  116        0.000   0.002   0.000   0.002
  117        0.020   0.250   0.000   0.270
  118        0.000   0.000   0.000   0.000
  119       -0.000   0.000   0.000   0.000
  120       -0.000   0.000   0.000   0.000
  121       -0.000   0.000   0.000   0.000
  122        0.000   0.002   0.000   0.002
  123        0.000   0.004   0.000   0.004
  124       -0.000   0.000   0.000   0.000
  125        0.000   0.004   0.000   0.004
  126        0.000   0.003   0.000   0.004
  127       -0.000  -0.001   0.000  -0.002
  128        0.000   0.001   0.000   0.001
  129        0.001   0.005   0.000   0.006
  130        0.000   0.001   0.000   0.001
  131       -0.000   0.000   0.000   0.000
  132        0.000   0.001   0.000   0.001
  133        0.001   0.005   0.000   0.006
  134        0.000   0.001   0.000   0.001
  135        0.000   0.000   0.000   0.001
  136        0.004   0.037   0.000   0.041
  137        0.000   0.001   0.000   0.001
  138       -0.000   0.011   0.000   0.011
  139        0.000   0.006   0.000   0.007
  140       -0.000   0.000   0.000   0.000
  141        0.000   0.003   0.000   0.004
  142       -0.000   0.001   0.000   0.001
  143       -0.000   0.000   0.000   0.000
  144       -0.000  -0.000   0.000  -0.001
  145       -0.000   0.000   0.000   0.000
  146        0.000   0.002   0.000   0.002
  147       -0.000   0.000   0.000   0.000
  148        0.000   0.001   0.000   0.001
  149        0.000   0.000   0.000   0.000
  150        0.000   0.001   0.000   0.001
  151        0.000   0.002   0.000   0.002
  152        0.000   0.001   0.000   0.001
  153       -0.000   0.000   0.000   0.000
  154        0.002   0.020   0.000   0.022
  155       -0.000   0.000   0.000  -0.000
  156       -0.000  -0.000   0.000  -0.001
  157        0.003   0.028   0.000   0.031
  158        0.000   0.005   0.000   0.005
  159       -0.000   0.000   0.000   0.000
  160       -0.000   0.000   0.000  -0.000
  161        0.000   0.001   0.000   0.001
  162       -0.000  -0.000   0.000  -0.000
  163       -0.000  -0.000   0.000  -0.000
  164        0.000   0.003   0.000   0.003
  165       -0.000  -0.000   0.000  -0.000
  166        0.000   0.002   0.000   0.002
  167        0.000   0.000   0.000   0.000
  168        0.000   0.003   0.000   0.003
  169        0.000   0.000   0.000   0.000
  170        0.003   0.026   0.000   0.030
  171        0.000   0.001   0.000   0.001
  172       -0.000   0.000   0.000  -0.000
  173        0.000   0.004   0.000   0.004
  174       -0.000   0.000   0.000  -0.000
  175        0.000   0.001   0.000   0.001
  176        0.000   0.001   0.000   0.001
  177        0.000   0.004   0.000   0.004
  178        0.000   0.001   0.000   0.001
  179        0.000   0.003   0.000   0.003
  180       -0.000  -0.000   0.000  -0.001
  181        0.001   0.007   0.000   0.007
  182        0.000   0.003   0.000   0.004
  183        0.001   0.007   0.000   0.007
  184       -0.000   0.000   0.000   0.000
  185        0.000   0.000   0.000   0.000
  186        0.000   0.003   0.000   0.004
  187        0.000   0.000   0.000   0.000
  188        0.000   0.000   0.000   0.000
  189        0.004   0.037   0.000   0.041
  190        0.000   0.006   0.000   0.007
  191       -0.000   0.001   0.000   0.001
  192        0.000   0.001   0.000   0.001
  193       -0.000   0.000   0.000   0.000
  194       -0.000   0.000   0.000   0.000
  195       -0.000   0.011   0.000   0.011
  196        0.000   0.003   0.000   0.004
  197       -0.000  -0.000   0.000  -0.001
  198       -0.000   0.000   0.000   0.000
  199        0.000   0.001   0.000   0.001
  200        0.000   0.002   0.000   0.002
  201        0.000   0.002   0.000   0.002
  202        0.000   0.000   0.000   0.000
  203        0.000   0.001   0.000   0.001
  204       -0.000   0.000   0.000   0.000
  205        0.000   0.001   0.000   0.001
  206       -0.000   0.000   0.000   0.000
  207        0.002   0.020   0.000   0.022
  208        0.003   0.028   0.000   0.031
  209       -0.000   0.000   0.000  -0.000
  210       -0.000   0.000   0.000  -0.000
  211        0.000   0.005   0.000   0.005
  212        0.000   0.001   0.000   0.001
  213       -0.000  -0.000   0.000  -0.001
  214       -0.000   0.000   0.000   0.000
  215       -0.000  -0.000   0.000  -0.000
--------------------------------------------------
tot          0.086   1.274   0.000   1.360
 

 total amount of memory used by VASP MPI-rank0    40004. kBytes
=======================================================================

   base      :      30000. kBytes
   nonlr-proj:       3647. kBytes
   fftplans  :       1350. kBytes
   grid      :       3557. kBytes
   one-center:         43. kBytes
   HF        :          9. kBytes
   wavefun   :       1398. kBytes
 
  
  
 General timing and accounting informations for this job:
 ========================================================
  
                  Total CPU time used (sec):     2776.969
                            User time (sec):     2752.223
                          System time (sec):       24.745
                         Elapsed time (sec):     2702.856
  
                   Maximum memory used (kb):      422812.
                   Average memory used (kb):           0.
  
                          Minor page faults:       136086
                          Major page faults:          389
                 Voluntary context switches:        12998
